/*--------------------------------*- C++ -*----------------------------------*\
| =========                 |                                                 |
| \\      /  F ield         | foam-extend: Open Source CFD                    |
|  \\    /   O peration     | Version:     5.0                                |
|   \\  /    A nd           | Web:         http://www.foam-extend.org         |
|    \\/     M anipulation  |                                                 |
\*---------------------------------------------------------------------------*/
FoamFile
{
    version     2.0;
    format      ascii;
    class       surfaceScalarField;
    location    "3";
    object      phi;
}
// * * * * * * * * * * * * * * * * * * * * * * * * * * * * * * * * * * * * * //

dimensions      [0 3 -1 0 0 0 0];

internalField   nonuniform List<scalar> 
99
(
1.22515e-06
1.22548e-06
1.22482e-06
1.22494e-06
1.2248e-06
1.22509e-06
1.22478e-06
1.22554e-06
1.22531e-06
1.22525e-06
1.22585e-06
1.22465e-06
1.22514e-06
1.22433e-06
1.22468e-06
1.21041e-06
1.2219e-06
1.19209e-06
1.16229e-06
1.17719e-06
1.17719e-06
1.17719e-06
1.17719e-06
1.17719e-06
1.17719e-06
1.17719e-06
1.19209e-06
1.19209e-06
1.19209e-06
1.16229e-06
1.14739e-06
1.14739e-06
1.11759e-06
1.07288e-06
1.05798e-06
1.07288e-06
1.08778e-06
1.07288e-06
1.08778e-06
1.07288e-06
1.10269e-06
1.11759e-06
1.11759e-06
1.08778e-06
1.05798e-06
1.05798e-06
1.04308e-06
1.04308e-06
1.04308e-06
1.05798e-06
1.04308e-06
1.04308e-06
1.05798e-06
1.05798e-06
1.08778e-06
1.10269e-06
1.10269e-06
1.11759e-06
1.11759e-06
1.13249e-06
1.10269e-06
1.10269e-06
1.13249e-06
1.08778e-06
1.10269e-06
1.07288e-06
1.07288e-06
1.08778e-06
1.07288e-06
1.04308e-06
1.02818e-06
1.01328e-06
9.98378e-07
9.83477e-07
9.98378e-07
9.83477e-07
9.53674e-07
9.68575e-07
9.38773e-07
9.08971e-07
9.23872e-07
9.23872e-07
8.79169e-07
8.9407e-07
8.9407e-07
9.08971e-07
9.23872e-07
9.23872e-07
9.23872e-07
9.23872e-07
8.79169e-07
8.64267e-07
8.9407e-07
8.79169e-07
8.9407e-07
8.9407e-07
8.9407e-07
8.9407e-07
8.9407e-07
)
;

boundaryField
{
    inlet
    {
        type            calculated;
        value           uniform -1.225e-06;
    }
    outlet
    {
        type            calculated;
        value           uniform 8.9407e-07;
    }
    yzfaces
    {
        type            empty;
    }
}


// ************************************************************************* //
