/*--------------------------------*- C++ -*----------------------------------*\
| =========                 |                                                 |
| \\      /  F ield         | foam-extend: Open Source CFD                    |
|  \\    /   O peration     | Version:     5.0                                |
|   \\  /    A nd           | Web:         http://www.foam-extend.org         |
|    \\/     M anipulation  |                                                 |
\*---------------------------------------------------------------------------*/
FoamFile
{
    version     2.0;
    format      ascii;
    class       volVectorField;
    location    "3";
    object      U.gas;
}
// * * * * * * * * * * * * * * * * * * * * * * * * * * * * * * * * * * * * * //

dimensions      [0 1 -1 0 0 0 0];

internalField   nonuniform List<vector> 
100
(
(0.000199513 0 0)
(0.000447421 0 0)
(0.00068091 0 0)
(0.000910433 0 0)
(0.00114054 0 0)
(0.00137466 0 0)
(0.00161533 0 0)
(0.00186901 0 0)
(0.002142 0 0)
(0.00244594 0 0)
(0.00281143 0 0)
(0.00329617 0 0)
(0.00406009 0 0)
(0.00580753 0 0)
(0.0117372 0 0)
(0.00479659 0 0)
(0.0049628 0 0)
(0.00492651 0 0)
(0.00480486 0 0)
(0.00477445 0 0)
(0.00480486 0 0)
(0.00480486 0 0)
(0.00480486 0 0)
(0.00480486 0 0)
(0.00480486 0 0)
(0.00480486 0 0)
(0.00483527 0 0)
(0.00486569 0 0)
(0.00486569 0 0)
(0.00480486 0 0)
(0.00471363 0 0)
(0.00468322 0 0)
(0.0046224 0 0)
(0.00447035 0 0)
(0.00434871 0 0)
(0.00434871 0 0)
(0.00440953 0 0)
(0.00440953 0 0)
(0.00440953 0 0)
(0.00440953 0 0)
(0.00443994 0 0)
(0.00453117 0 0)
(0.00456158 0 0)
(0.00450076 0 0)
(0.00437912 0 0)
(0.0043183 0 0)
(0.00428789 0 0)
(0.00425747 0 0)
(0.00425747 0 0)
(0.00428789 0 0)
(0.00428789 0 0)
(0.00425747 0 0)
(0.00428789 0 0)
(0.0043183 0 0)
(0.00437912 0 0)
(0.00447035 0 0)
(0.00450076 0 0)
(0.00453117 0 0)
(0.00456158 0 0)
(0.00459199 0 0)
(0.00456158 0 0)
(0.00450076 0 0)
(0.00456158 0 0)
(0.00453117 0 0)
(0.00447035 0 0)
(0.00443994 0 0)
(0.00437912 0 0)
(0.00440953 0 0)
(0.00440953 0 0)
(0.0043183 0 0)
(0.00422706 0 0)
(0.00416624 0 0)
(0.00410542 0 0)
(0.0040446 0 0)
(0.0040446 0 0)
(0.0040446 0 0)
(0.00395337 0 0)
(0.00392296 0 0)
(0.00389255 0 0)
(0.00377091 0 0)
(0.0037405 0 0)
(0.00377091 0 0)
(0.00367967 0 0)
(0.00361885 0 0)
(0.00364926 0 0)
(0.00367967 0 0)
(0.0037405 0 0)
(0.00377091 0 0)
(0.00377091 0 0)
(0.00377091 0 0)
(0.00367967 0 0)
(0.00355803 0 0)
(0.00358844 0 0)
(0.00361885 0 0)
(0.00361885 0 0)
(0.00364926 0 0)
(0.00364926 0 0)
(0.00364926 0 0)
(0.00364926 0 0)
(0.00364926 0 0)
)
;

boundaryField
{
    inlet
    {
        type            fixedValue;
        value           uniform (0 0 0);
    }
    outlet
    {
        type            zeroGradient;
    }
    yzfaces
    {
        type            empty;
    }
}


// ************************************************************************* //
