/*--------------------------------*- C++ -*----------------------------------*\
| =========                 |                                                 |
| \\      /  F ield         | foam-extend: Open Source CFD                    |
|  \\    /   O peration     | Version:     5.0                                |
|   \\  /    A nd           | Web:         http://www.foam-extend.org         |
|    \\/     M anipulation  |                                                 |
\*---------------------------------------------------------------------------*/
FoamFile
{
    version     2.0;
    format      ascii;
    class       volScalarField;
    location    "20000";
    object      alpha.gas;
}
// * * * * * * * * * * * * * * * * * * * * * * * * * * * * * * * * * * * * * //

dimensions      [0 0 0 0 0 0 0];

internalField   nonuniform List<scalar> 
1500
(
5.36297e-07
5.88064e-07
6.42424e-07
6.97179e-07
7.54037e-07
8.17907e-07
9.02061e-07
1.05293e-06
1.23551e-06
1.39e-06
1.53143e-06
1.66614e-06
1.79703e-06
1.92558e-06
2.05261e-06
2.1786e-06
2.30386e-06
2.42858e-06
2.5529e-06
2.67689e-06
2.80063e-06
2.92415e-06
3.0475e-06
3.17071e-06
3.29378e-06
3.41674e-06
3.5396e-06
3.66238e-06
3.78507e-06
3.90768e-06
4.03024e-06
4.15272e-06
4.27515e-06
4.39753e-06
4.51986e-06
4.64214e-06
4.76438e-06
4.88657e-06
5.00873e-06
5.13085e-06
5.25294e-06
5.37499e-06
5.49701e-06
5.61899e-06
5.74095e-06
5.86289e-06
5.98479e-06
6.10667e-06
6.22853e-06
6.35036e-06
6.47217e-06
6.59396e-06
6.71573e-06
6.83748e-06
6.9592e-06
7.08091e-06
7.20261e-06
7.32428e-06
7.44594e-06
7.56758e-06
7.6892e-06
7.81081e-06
7.93241e-06
8.05399e-06
8.17556e-06
8.29711e-06
8.41865e-06
8.54018e-06
8.6617e-06
8.7832e-06
8.90469e-06
9.02617e-06
9.14764e-06
9.2691e-06
9.39055e-06
9.51199e-06
9.63342e-06
9.75484e-06
9.87625e-06
9.99765e-06
1.0119e-05
1.02404e-05
1.03618e-05
1.04832e-05
1.06045e-05
1.07259e-05
1.08472e-05
1.09685e-05
1.10899e-05
1.12112e-05
1.13325e-05
1.14538e-05
1.15751e-05
1.16964e-05
1.18177e-05
1.1939e-05
1.20602e-05
1.21815e-05
1.23028e-05
1.2424e-05
1.25453e-05
1.26665e-05
1.27878e-05
1.2909e-05
1.30302e-05
1.31514e-05
1.32727e-05
1.33939e-05
1.35151e-05
1.36363e-05
1.37575e-05
1.38787e-05
1.39998e-05
1.4121e-05
1.42422e-05
1.43634e-05
1.44846e-05
1.46057e-05
1.47269e-05
1.4848e-05
1.49692e-05
1.50903e-05
1.52115e-05
1.53326e-05
1.54538e-05
1.55749e-05
1.5696e-05
1.58172e-05
1.59383e-05
1.60594e-05
1.61805e-05
1.63016e-05
1.64227e-05
1.65439e-05
1.6665e-05
1.67861e-05
1.69072e-05
1.70282e-05
1.71493e-05
1.72704e-05
1.73915e-05
1.75126e-05
1.76337e-05
1.77547e-05
1.78758e-05
1.79969e-05
1.8118e-05
1.8239e-05
1.83601e-05
1.84811e-05
1.86022e-05
1.87233e-05
1.88443e-05
1.89654e-05
1.90864e-05
1.92074e-05
1.93285e-05
1.94495e-05
1.95706e-05
1.96916e-05
1.98126e-05
1.99337e-05
2.00547e-05
2.01757e-05
2.02967e-05
2.04178e-05
2.05388e-05
2.06598e-05
2.07808e-05
2.09018e-05
2.10228e-05
2.11439e-05
2.12649e-05
2.13859e-05
2.15069e-05
2.16279e-05
2.17489e-05
2.18699e-05
2.19909e-05
2.21119e-05
2.22329e-05
2.23538e-05
2.24748e-05
2.25958e-05
2.27168e-05
2.28378e-05
2.29588e-05
2.30798e-05
2.32007e-05
2.33217e-05
2.34427e-05
2.35637e-05
2.36846e-05
2.38056e-05
2.39266e-05
2.40475e-05
2.41685e-05
2.42895e-05
2.44104e-05
2.45314e-05
2.46524e-05
2.47733e-05
2.48943e-05
2.50152e-05
2.51362e-05
2.52571e-05
2.53781e-05
2.5499e-05
2.562e-05
2.57409e-05
2.58619e-05
2.59828e-05
2.61038e-05
2.62247e-05
2.63457e-05
2.64666e-05
2.65875e-05
2.67085e-05
2.68294e-05
2.69503e-05
2.70713e-05
2.71922e-05
2.73131e-05
2.74341e-05
2.7555e-05
2.76759e-05
2.77969e-05
2.79178e-05
2.80387e-05
2.81596e-05
2.82806e-05
2.84015e-05
2.85224e-05
2.86433e-05
2.87642e-05
2.88852e-05
2.90061e-05
2.9127e-05
2.92479e-05
2.93688e-05
2.94913e-05
2.99036e-05
8.45712e-05
0.00247278
0.00504703
0.00757073
0.0100454
0.0124724
0.014853
0.0171883
0.0194795
0.0217277
0.023934
0.0260995
0.028225
0.0303117
0.0323605
0.0343722
0.0363478
0.0382881
0.040194
0.0420663
0.0439057
0.0457131
0.0474892
0.0492346
0.0509502
0.0526366
0.0542943
0.0559242
0.0575268
0.0591028
0.0606526
0.0621769
0.0636763
0.0651512
0.0666023
0.06803
0.0694348
0.0708173
0.0721778
0.073517
0.0748351
0.0761326
0.07741
0.0786678
0.0799062
0.0811257
0.0823266
0.0835094
0.0846744
0.085822
0.0869525
0.0880662
0.0891635
0.0902448
0.0913102
0.0923602
0.093395
0.0944149
0.0954202
0.0964112
0.0973881
0.0983513
0.0993009
0.100237
0.101161
0.102071
0.102969
0.103855
0.104728
0.10559
0.10644
0.107279
0.108106
0.108922
0.109728
0.110523
0.111307
0.112081
0.112845
0.113599
0.114343
0.115078
0.115803
0.116519
0.117226
0.117924
0.118613
0.119294
0.119966
0.120629
0.121285
0.121932
0.122571
0.123203
0.123826
0.124443
0.125051
0.125653
0.126247
0.126834
0.127414
0.127988
0.128554
0.129114
0.129667
0.130214
0.130755
0.131289
0.131817
0.132339
0.132855
0.133365
0.133869
0.134368
0.134861
0.135349
0.135831
0.136307
0.136779
0.137245
0.137706
0.138162
0.138613
0.139059
0.1395
0.139937
0.140368
0.140796
0.141218
0.141636
0.14205
0.142459
0.142864
0.143265
0.143661
0.144054
0.144442
0.144826
0.145206
0.145583
0.145955
0.146324
0.146689
0.14705
0.147408
0.147762
0.148112
0.148459
0.148803
0.149143
0.149479
0.149813
0.150143
0.15047
0.150793
0.151114
0.151431
0.151746
0.152057
0.152365
0.152671
0.152973
0.153272
0.153569
0.153863
0.154154
0.154443
0.154728
0.155011
0.155292
0.155569
0.155845
0.156117
0.156388
0.156655
0.15692
0.157183
0.157444
0.157702
0.157958
0.158211
0.158462
0.158711
0.158958
0.159202
0.159445
0.159685
0.159923
0.160159
0.160393
0.160625
0.160855
0.161083
0.161309
0.161533
0.161755
0.161975
0.162193
0.162409
0.162624
0.162837
0.163048
0.163257
0.163464
0.16367
0.163874
0.164076
0.164277
0.164475
0.164673
0.164868
0.165062
0.165255
0.165446
0.165635
0.165823
0.166009
0.166194
0.166377
0.166559
0.166739
0.166918
0.167096
0.167272
0.167446
0.16762
0.167791
0.167962
0.168131
0.168299
0.168466
0.168631
0.168795
0.168958
0.169119
0.16928
0.169439
0.169596
0.169753
0.169908
0.170063
0.170216
0.170368
0.170518
0.170668
0.170816
0.170964
0.17111
0.171255
0.171399
0.171542
0.171684
0.171825
0.171965
0.172104
0.172242
0.172379
0.172515
0.17265
0.172784
0.172917
0.173049
0.17318
0.17331
0.173439
0.173567
0.173695
0.173821
0.173947
0.174071
0.174195
0.174318
0.17444
0.174561
0.174682
0.174801
0.17492
0.175038
0.175155
0.175271
0.175387
0.175501
0.175615
0.175728
0.175841
0.175952
0.176063
0.176173
0.176282
0.176391
0.176499
0.176606
0.176712
0.176818
0.176923
0.177028
0.177131
0.177234
0.177336
0.177438
0.177539
0.177639
0.177739
0.177838
0.177936
0.178034
0.178131
0.178227
0.178323
0.178418
0.178513
0.178607
0.1787
0.178793
0.178885
0.178977
0.179068
0.179158
0.179248
0.179338
0.179426
0.179515
0.179602
0.179689
0.179776
0.179862
0.179947
0.180032
0.180117
0.180201
0.180284
0.180367
0.18045
0.180532
0.180613
0.180694
0.180774
0.180854
0.180934
0.181013
0.181091
0.181169
0.181247
0.181324
0.181401
0.181477
0.181552
0.181628
0.181703
0.181777
0.181851
0.181925
0.181998
0.18207
0.182143
0.182214
0.182286
0.182357
0.182428
0.182498
0.182568
0.182637
0.182706
0.182775
0.182843
0.182911
0.182978
0.183045
0.183112
0.183178
0.183244
0.18331
0.183375
0.18344
0.183504
0.183568
0.183632
0.183695
0.183758
0.183821
0.183883
0.183945
0.184007
0.184068
0.184129
0.18419
0.18425
0.18431
0.18437
0.184429
0.184488
0.184547
0.184605
0.184663
0.184721
0.184779
0.184836
0.184893
0.184949
0.185005
0.185061
0.185117
0.185172
0.185227
0.185282
0.185337
0.185391
0.185445
0.185498
0.185552
0.185605
0.185658
0.18571
0.185762
0.185814
0.185866
0.185918
0.185969
0.18602
0.18607
0.186121
0.186171
0.186221
0.18627
0.18632
0.186369
0.186418
0.186466
0.186515
0.186563
0.186611
0.186659
0.186706
0.186753
0.1868
0.186847
0.186893
0.18694
0.186986
0.187032
0.187077
0.187123
0.187168
0.187213
0.187257
0.187302
0.187346
0.18739
0.187434
0.187478
0.187521
0.187564
0.187607
0.18765
0.187693
0.187735
0.187777
0.187819
0.187861
0.187902
0.187944
0.187985
0.188026
0.188067
0.188107
0.188148
0.188188
0.188228
0.188268
0.188308
0.188347
0.188386
0.188426
0.188465
0.188503
0.188542
0.18858
0.188619
0.188657
0.188694
0.188732
0.18877
0.188807
0.188844
0.188881
0.188918
0.188955
0.188991
0.189028
0.189064
0.1891
0.189136
0.189171
0.189207
0.189242
0.189278
0.189313
0.189348
0.189382
0.189417
0.189451
0.189486
0.18952
0.189554
0.189588
0.189621
0.189655
0.189688
0.189722
0.189755
0.189788
0.189821
0.189853
0.189886
0.189918
0.18995
0.189983
0.190015
0.190046
0.190078
0.19011
0.190141
0.190173
0.190204
0.190235
0.190266
0.190296
0.190327
0.190358
0.190388
0.190418
0.190448
0.190478
0.190508
0.190538
0.190568
0.190597
0.190627
0.190656
0.190685
0.190714
0.190743
0.190772
0.190801
0.190829
0.190858
0.190886
0.190914
0.190942
0.19097
0.190998
0.191026
0.191053
0.191081
0.191108
0.191136
0.191163
0.19119
0.191217
0.191244
0.191271
0.191297
0.191324
0.19135
0.191377
0.191403
0.191429
0.191455
0.191481
0.191507
0.191532
0.191558
0.191583
0.191609
0.191634
0.191659
0.191685
0.19171
0.191735
0.191759
0.191784
0.191809
0.191833
0.191858
0.191882
0.191906
0.19193
0.191955
0.191979
0.192002
0.192026
0.19205
0.192074
0.192097
0.19212
0.192144
0.192167
0.19219
0.192213
0.192236
0.192259
0.192282
0.192305
0.192327
0.19235
0.192372
0.192395
0.192417
0.192439
0.192462
0.192484
0.192506
0.192528
0.192549
0.192571
0.192593
0.192614
0.192636
0.192657
0.192679
0.1927
0.192721
0.192742
0.192763
0.192784
0.192805
0.192826
0.192847
0.192867
0.192888
0.192908
0.192929
0.192949
0.192969
0.19299
0.19301
0.19303
0.19305
0.19307
0.19309
0.193109
0.193129
0.193149
0.193168
0.193188
0.193207
0.193227
0.193246
0.193265
0.193284
0.193304
0.193323
0.193342
0.19336
0.193379
0.193398
0.193417
0.193435
0.193454
0.193472
0.193491
0.193509
0.193528
0.193546
0.193564
0.193582
0.1936
0.193618
0.193636
0.193654
0.193672
0.19369
0.193707
0.193725
0.193743
0.19376
0.193777
0.193795
0.193812
0.19383
0.193847
0.193864
0.193881
0.193898
0.193915
0.193932
0.193949
0.193966
0.193982
0.193999
0.194016
0.194032
0.194049
0.194065
0.194082
0.194098
0.194115
0.194131
0.194147
0.194163
0.194179
0.194195
0.194211
0.194227
0.194243
0.194259
0.194275
0.194291
0.194306
0.194322
0.194338
0.194353
0.194369
0.194384
0.194399
0.194415
0.19443
0.194445
0.19446
0.194476
0.194491
0.194506
0.194521
0.194536
0.194551
0.194565
0.19458
0.194595
0.19461
0.194624
0.194639
0.194653
0.194668
0.194682
0.194697
0.194711
0.194726
0.19474
0.194754
0.194768
0.194782
0.194797
0.194811
0.194825
0.194839
0.194853
0.194866
0.19488
0.194894
0.194908
0.194922
0.194935
0.194949
0.194962
0.194976
0.194989
0.195003
0.195016
0.19503
0.195043
0.195056
0.19507
0.195083
0.195096
0.195109
0.195122
0.195135
0.195148
0.195161
0.195174
0.195187
0.1952
0.195213
0.195225
0.195238
0.195251
0.195263
0.195276
0.195289
0.195301
0.195314
0.195326
0.195338
0.195351
0.195363
0.195375
0.195388
0.1954
0.195412
0.195424
0.195436
0.195448
0.19546
0.195472
0.195484
0.195496
0.195508
0.19552
0.195532
0.195544
0.195555
0.195567
0.195579
0.19559
0.195602
0.195614
0.195625
0.195637
0.195648
0.19566
0.195671
0.195682
0.195694
0.195705
0.195716
0.195727
0.195739
0.19575
0.195761
0.195772
0.195783
0.195794
0.195805
0.195816
0.195827
0.195838
0.195849
0.195859
0.19587
0.195881
0.195892
0.195902
0.195913
0.195924
0.195934
0.195945
0.195955
0.195966
0.195976
0.195987
0.195997
0.196007
0.196018
0.196028
0.196038
0.196049
0.196059
0.196069
0.196079
0.196089
0.196099
0.196109
0.196119
0.196129
0.196139
0.196149
0.196159
0.196169
0.196179
0.196189
0.196198
0.196208
0.196218
0.196228
0.196237
0.196247
0.196257
0.196266
0.196276
0.196285
0.196295
0.196304
0.196314
0.196323
0.196332
0.196342
0.196351
0.19636
0.19637
0.196379
0.196388
0.196397
0.196406
0.196415
0.196424
0.196434
0.196443
0.196452
0.196461
0.196469
0.196478
0.196487
0.196496
0.196505
0.196514
0.196523
0.196531
0.19654
0.196549
0.196557
0.196566
0.196575
0.196583
0.196592
0.1966
0.196609
0.196617
0.196626
0.196634
0.196643
0.196651
0.196659
0.196668
0.196676
0.196684
0.196692
0.196701
0.196709
0.196717
0.196725
0.196733
0.196741
0.196749
0.196757
0.196765
0.196773
0.196781
0.196789
0.196797
0.196805
0.196813
0.196821
0.196828
0.196836
0.196844
0.196852
0.196859
0.196867
0.196875
0.196882
0.19689
0.196897
0.196905
0.196912
0.19692
0.196927
0.196935
0.196942
0.19695
0.196957
0.196964
0.196972
0.196979
0.196986
0.196993
0.197001
0.197008
0.197015
0.197022
0.197029
0.197036
0.197043
0.19705
0.197057
0.197064
0.197071
0.197078
0.197085
0.197092
0.197099
0.197106
0.197113
0.197119
0.197126
0.197133
0.19714
0.197146
0.197153
0.19716
0.197166
0.197173
0.197179
0.197186
0.197192
0.197199
0.197205
0.197212
0.197218
0.197225
0.197231
0.197237
0.197244
0.19725
0.197256
0.197263
0.197269
0.197275
0.197281
0.197287
0.197293
0.197299
0.197306
0.197312
0.197318
0.197324
0.19733
0.197336
0.197342
0.197347
0.197353
0.197359
0.197365
0.197371
0.197377
0.197382
0.197388
0.197394
0.1974
0.197405
0.197411
0.197417
0.197422
0.197428
0.197433
0.197439
0.197444
0.19745
0.197455
0.197461
0.197466
0.197471
0.197477
0.197482
0.197488
0.197493
0.197498
0.197503
0.197509
0.197514
0.197519
0.197524
0.197529
0.197534
0.197539
0.197544
0.197549
0.197554
0.197559
0.197564
0.197569
0.197574
0.197579
0.197584
0.197589
0.197594
0.197598
0.197603
0.197608
0.197613
0.197617
0.197622
0.197627
0.197631
0.197636
0.19764
0.197645
0.197649
0.197654
0.197658
0.197663
0.197667
0.197672
0.197676
0.19768
0.197685
0.197689
0.197693
0.197698
0.197702
0.197706
0.19771
0.197714
0.197719
0.197723
0.197727
0.197731
0.197735
0.197739
0.197743
0.197747
0.197751
0.197755
0.197759
0.197762
0.197766
0.19777
0.197774
0.197778
0.197781
0.197785
0.197789
0.197793
0.197796
0.1978
0.197804
0.197807
0.197811
0.197814
0.197818
0.197821
0.197825
0.197828
0.197832
0.197835
0.197838
0.197842
0.197845
0.197848
0.197851
0.197855
0.197858
0.197861
0.197864
0.197867
0.197871
0.197874
0.197877
0.19788
0.197883
0.197886
0.197889
0.197892
0.197895
0.197898
0.197901
0.197903
0.197906
0.197909
0.197912
0.197915
0.197917
0.19792
0.197923
0.197925
0.197928
0.197931
0.197933
0.197936
0.197938
0.197941
0.197943
0.197946
0.197948
0.197951
0.197953
0.197955
0.197958
0.19796
0.197962
0.197965
0.197967
0.197969
0.197971
0.197974
0.197976
0.197978
0.19798
0.197982
0.197984
0.197986
0.197988
0.19799
0.197992
0.197994
0.197996
0.197998
0.198
0.198002
0.198003
0.198005
0.198007
0.198009
0.198011
0.198012
0.198014
0.198016
0.198017
0.198019
0.19802
0.198022
0.198023
0.198025
0.198026
0.198028
0.198029
0.198031
0.198032
0.198034
0.198035
0.198036
0.198038
0.198039
0.19804
0.198041
0.198043
0.198044
0.198045
0.198046
0.198047
0.198048
0.198049
0.19805
0.198051
0.198052
0.198053
0.198054
0.198055
0.198056
0.198057
0.198058
0.198059
0.198059
0.19806
0.198061
0.198062
0.198063
0.198063
0.198064
0.198065
0.198065
0.198066
0.198066
0.198067
0.198068
0.198068
0.198069
0.198069
0.198069
0.19807
0.19807
0.198071
0.198071
0.198071
0.198072
0.198072
0.198072
0.198073
0.198073
0.198073
0.198073
0.198073
0.198074
0.198074
0.198074
0.198074
0.198074
0.198074
0.198074
)
;

boundaryField
{
    bottom
    {
        type            fixedValue;
        value           uniform 0.1;
    }
    top
    {
        type            zeroGradient;
    }
    walls
    {
        type            zeroGradient;
    }
}


// ************************************************************************* //
