/*--------------------------------*- C++ -*----------------------------------*\
| =========                 |                                                 |
| \\      /  F ield         | foam-extend: Open Source CFD                    |
|  \\    /   O peration     | Version:     5.0                                |
|   \\  /    A nd           | Web:         http://www.foam-extend.org         |
|    \\/     M anipulation  |                                                 |
\*---------------------------------------------------------------------------*/
FoamFile
{
    version     2.0;
    format      ascii;
    class       volScalarField;
    location    "20000";
    object      alpha.water;
}
// * * * * * * * * * * * * * * * * * * * * * * * * * * * * * * * * * * * * * //

dimensions      [0 0 0 0 0 0 0];

internalField   nonuniform List<scalar> 
1500
(
0.199999
0.199999
0.199999
0.199999
0.199999
0.199999
0.199999
0.199999
0.199999
0.199999
0.199998
0.199998
0.199998
0.199998
0.199998
0.199998
0.199998
0.199998
0.199997
0.199997
0.199997
0.199997
0.199997
0.199997
0.199997
0.199997
0.199996
0.199996
0.199996
0.199996
0.199996
0.199996
0.199996
0.199996
0.199995
0.199995
0.199995
0.199995
0.199995
0.199995
0.199995
0.199995
0.199995
0.199994
0.199994
0.199994
0.199994
0.199994
0.199994
0.199994
0.199994
0.199993
0.199993
0.199993
0.199993
0.199993
0.199993
0.199993
0.199993
0.199992
0.199992
0.199992
0.199992
0.199992
0.199992
0.199992
0.199992
0.199991
0.199991
0.199991
0.199991
0.199991
0.199991
0.199991
0.199991
0.19999
0.19999
0.19999
0.19999
0.19999
0.19999
0.19999
0.19999
0.19999
0.199989
0.199989
0.199989
0.199989
0.199989
0.199989
0.199989
0.199989
0.199988
0.199988
0.199988
0.199988
0.199988
0.199988
0.199988
0.199988
0.199987
0.199987
0.199987
0.199987
0.199987
0.199987
0.199987
0.199987
0.199986
0.199986
0.199986
0.199986
0.199986
0.199986
0.199986
0.199986
0.199986
0.199985
0.199985
0.199985
0.199985
0.199985
0.199985
0.199985
0.199985
0.199984
0.199984
0.199984
0.199984
0.199984
0.199984
0.199984
0.199984
0.199983
0.199983
0.199983
0.199983
0.199983
0.199983
0.199983
0.199983
0.199982
0.199982
0.199982
0.199982
0.199982
0.199982
0.199982
0.199982
0.199982
0.199981
0.199981
0.199981
0.199981
0.199981
0.199981
0.199981
0.199981
0.19998
0.19998
0.19998
0.19998
0.19998
0.19998
0.19998
0.19998
0.199979
0.199979
0.199979
0.199979
0.199979
0.199979
0.199979
0.199979
0.199978
0.199978
0.199978
0.199978
0.199978
0.199978
0.199978
0.199978
0.199978
0.199977
0.199977
0.199977
0.199977
0.199977
0.199977
0.199977
0.199977
0.199976
0.199976
0.199976
0.199976
0.199976
0.199976
0.199976
0.199976
0.199975
0.199975
0.199975
0.199975
0.199975
0.199975
0.199975
0.199975
0.199975
0.199974
0.199974
0.199974
0.199974
0.199974
0.199974
0.199974
0.199974
0.199973
0.199973
0.199973
0.199973
0.199973
0.199973
0.199973
0.199973
0.199972
0.199972
0.199972
0.199972
0.199972
0.199972
0.199972
0.199972
0.199971
0.199971
0.199971
0.199971
0.199971
0.199971
0.199971
0.199971
0.199971
0.19997
0.199915
0.197527
0.194953
0.192429
0.189955
0.187528
0.185147
0.182812
0.180521
0.178272
0.176066
0.173901
0.171775
0.169688
0.16764
0.165628
0.163652
0.161712
0.159806
0.157934
0.156094
0.154287
0.152511
0.150765
0.14905
0.147363
0.145706
0.144076
0.142473
0.140897
0.139347
0.137823
0.136324
0.134849
0.133398
0.13197
0.130565
0.129183
0.127822
0.126483
0.125165
0.123867
0.12259
0.121332
0.120094
0.118874
0.117673
0.116491
0.115326
0.114178
0.113048
0.111934
0.110836
0.109755
0.10869
0.10764
0.106605
0.105585
0.10458
0.103589
0.102612
0.101649
0.100699
0.0997628
0.0988394
0.0979289
0.0970309
0.0961452
0.0952717
0.09441
0.0935599
0.0927213
0.091894
0.0910777
0.0902722
0.0894774
0.088693
0.087919
0.087155
0.086401
0.0856567
0.0849221
0.0841968
0.0834808
0.0827739
0.082076
0.0813869
0.0807064
0.0800344
0.0793708
0.0787154
0.0780681
0.0774288
0.0767973
0.0761735
0.0755573
0.0749485
0.0743471
0.0737528
0.0731657
0.0725856
0.0720123
0.0714458
0.070886
0.0703327
0.0697859
0.0692454
0.0687112
0.0681831
0.0676611
0.0671451
0.066635
0.0661306
0.065632
0.0651389
0.0646515
0.0641694
0.0636927
0.0632213
0.0627552
0.0622941
0.0618382
0.0613872
0.0609411
0.0604998
0.0600634
0.0596316
0.0592045
0.0587819
0.0583638
0.0579502
0.0575409
0.057136
0.0567353
0.0563388
0.0559465
0.0555582
0.055174
0.0547937
0.0544173
0.0540448
0.0536761
0.0533111
0.0529499
0.0525923
0.0522383
0.0518878
0.0515409
0.0511974
0.0508573
0.0505206
0.0501873
0.0498572
0.0495303
0.0492067
0.0488862
0.0485688
0.0482544
0.0479431
0.0476348
0.0473295
0.0470271
0.0467275
0.0464308
0.0461369
0.0458458
0.0455574
0.0452717
0.0449887
0.0447083
0.0444305
0.0441553
0.0438826
0.0436125
0.0433448
0.0430795
0.0428167
0.0425563
0.0422982
0.0420424
0.041789
0.0415378
0.0412889
0.0410421
0.0407976
0.0405553
0.040315
0.0400769
0.0398409
0.039607
0.0393751
0.0391452
0.0389173
0.0386914
0.0384674
0.0382454
0.0380253
0.037807
0.0375906
0.0373761
0.0371633
0.0369524
0.0367432
0.0365358
0.0363302
0.0361262
0.035924
0.0357234
0.0355245
0.0353273
0.0351316
0.0349376
0.0347452
0.0345543
0.034365
0.0341772
0.033991
0.0338062
0.033623
0.0334412
0.0332608
0.033082
0.0329045
0.0327284
0.0325538
0.0323805
0.0322086
0.032038
0.0318688
0.0317009
0.0315343
0.031369
0.031205
0.0310422
0.0308807
0.0307205
0.0305615
0.0304037
0.0302471
0.0300917
0.0299374
0.0297844
0.0296325
0.0294817
0.0293321
0.0291836
0.0290362
0.0288899
0.0287447
0.0286006
0.0284575
0.0283155
0.0281746
0.0280346
0.0278957
0.0277578
0.027621
0.0274851
0.0273502
0.0272162
0.0270833
0.0269513
0.0268202
0.0266901
0.0265609
0.0264327
0.0263053
0.0261789
0.0260533
0.0259286
0.0258048
0.0256819
0.0255598
0.0254386
0.0253183
0.0251987
0.02508
0.0249622
0.0248451
0.0247288
0.0246134
0.0244987
0.0243848
0.0242717
0.0241594
0.0240478
0.023937
0.0238269
0.0237176
0.023609
0.0235011
0.0233939
0.0232875
0.0231818
0.0230768
0.0229725
0.0228688
0.0227659
0.0226636
0.022562
0.0224611
0.0223608
0.0222612
0.0221622
0.0220639
0.0219662
0.0218691
0.0217727
0.0216769
0.0215817
0.0214871
0.0213931
0.0212997
0.021207
0.0211148
0.0210231
0.0209321
0.0208416
0.0207518
0.0206624
0.0205737
0.0204854
0.0203978
0.0203107
0.0202241
0.020138
0.0200525
0.0199675
0.0198831
0.0197991
0.0197157
0.0196328
0.0195504
0.0194685
0.0193871
0.0193062
0.0192257
0.0191458
0.0190663
0.0189873
0.0189088
0.0188308
0.0187532
0.0186761
0.0185995
0.0185233
0.0184475
0.0183722
0.0182974
0.0182229
0.018149
0.0180754
0.0180023
0.0179296
0.0178574
0.0177855
0.0177141
0.0176431
0.0175725
0.0175023
0.0174325
0.0173631
0.0172941
0.0172255
0.0171573
0.0170894
0.017022
0.0169549
0.0168883
0.016822
0.016756
0.0166905
0.0166253
0.0165605
0.016496
0.0164319
0.0163682
0.0163048
0.0162417
0.016179
0.0161167
0.0160547
0.015993
0.0159317
0.0158707
0.0158101
0.0157497
0.0156897
0.0156301
0.0155707
0.0155117
0.015453
0.0153946
0.0153365
0.0152788
0.0152213
0.0151642
0.0151073
0.0150508
0.0149945
0.0149386
0.014883
0.0148276
0.0147726
0.0147178
0.0146633
0.0146091
0.0145552
0.0145016
0.0144482
0.0143951
0.0143424
0.0142898
0.0142376
0.0141856
0.0141339
0.0140824
0.0140312
0.0139803
0.0139297
0.0138793
0.0138291
0.0137792
0.0137296
0.0136802
0.0136311
0.0135822
0.0135335
0.0134851
0.013437
0.0133891
0.0133414
0.013294
0.0132468
0.0131998
0.0131531
0.0131066
0.0130603
0.0130143
0.0129684
0.0129229
0.0128775
0.0128323
0.0127874
0.0127427
0.0126982
0.012654
0.0126099
0.0125661
0.0125224
0.012479
0.0124358
0.0123928
0.01235
0.0123074
0.012265
0.0122229
0.0121809
0.0121391
0.0120975
0.0120561
0.0120149
0.0119739
0.0119331
0.0118925
0.0118521
0.0118119
0.0117718
0.011732
0.0116923
0.0116528
0.0116135
0.0115744
0.0115355
0.0114967
0.0114581
0.0114197
0.0113815
0.0113434
0.0113056
0.0112679
0.0112303
0.011193
0.0111558
0.0111188
0.0110819
0.0110452
0.0110087
0.0109724
0.0109362
0.0109002
0.0108643
0.0108286
0.010793
0.0107577
0.0107224
0.0106873
0.0106524
0.0106177
0.0105831
0.0105486
0.0105143
0.0104802
0.0104462
0.0104123
0.0103786
0.010345
0.0103116
0.0102784
0.0102453
0.0102123
0.0101794
0.0101468
0.0101142
0.0100818
0.0100495
0.0100174
0.00998541
0.00995356
0.00992184
0.00989025
0.00985881
0.00982749
0.00979631
0.00976526
0.00973435
0.00970356
0.0096729
0.00964238
0.00961198
0.00958171
0.00955156
0.00952154
0.00949165
0.00946189
0.00943224
0.00940272
0.00937332
0.00934405
0.0093149
0.00928586
0.00925695
0.00922815
0.00919948
0.00917092
0.00914248
0.00911415
0.00908594
0.00905785
0.00902987
0.00900201
0.00897425
0.00894661
0.00891908
0.00889167
0.00886436
0.00883717
0.00881008
0.0087831
0.00875623
0.00872947
0.00870281
0.00867627
0.00864982
0.00862348
0.00859725
0.00857112
0.0085451
0.00851917
0.00849335
0.00846764
0.00844202
0.0084165
0.00839108
0.00836577
0.00834055
0.00831543
0.00829041
0.00826548
0.00824066
0.00821592
0.00819129
0.00816675
0.0081423
0.00811795
0.0080937
0.00806953
0.00804546
0.00802148
0.0079976
0.0079738
0.0079501
0.00792648
0.00790296
0.00787952
0.00785618
0.00783292
0.00780975
0.00778667
0.00776367
0.00774076
0.00771794
0.0076952
0.00767255
0.00764998
0.0076275
0.0076051
0.00758279
0.00756056
0.00753841
0.00751634
0.00749435
0.00747245
0.00745063
0.00742888
0.00740722
0.00738564
0.00736413
0.00734271
0.00732136
0.0073001
0.0072789
0.00725779
0.00723676
0.0072158
0.00719491
0.0071741
0.00715337
0.00713271
0.00711213
0.00709162
0.00707119
0.00705083
0.00703054
0.00701032
0.00699018
0.00697011
0.00695011
0.00693018
0.00691032
0.00689054
0.00687082
0.00685118
0.0068316
0.00681209
0.00679265
0.00677328
0.00675398
0.00673475
0.00671558
0.00669649
0.00667745
0.00665849
0.00663959
0.00662076
0.00660199
0.00658329
0.00656465
0.00654608
0.00652757
0.00650913
0.00649075
0.00647243
0.00645418
0.00643599
0.00641786
0.0063998
0.00638179
0.00636385
0.00634597
0.00632815
0.0063104
0.0062927
0.00627506
0.00625748
0.00623997
0.00622251
0.00620511
0.00618777
0.00617049
0.00615327
0.0061361
0.006119
0.00610195
0.00608496
0.00606802
0.00605114
0.00603432
0.00601756
0.00600085
0.0059842
0.0059676
0.00595106
0.00593457
0.00591814
0.00590176
0.00588544
0.00586917
0.00585295
0.00583679
0.00582068
0.00580462
0.00578862
0.00577267
0.00575677
0.00574093
0.00572513
0.00570939
0.0056937
0.00567806
0.00566248
0.00564694
0.00563145
0.00561602
0.00560063
0.0055853
0.00557001
0.00555477
0.00553959
0.00552445
0.00550936
0.00549432
0.00547933
0.00546438
0.00544949
0.00543464
0.00541984
0.00540509
0.00539038
0.00537573
0.00536111
0.00534655
0.00533203
0.00531756
0.00530314
0.00528876
0.00527442
0.00526013
0.00524589
0.0052317
0.00521754
0.00520344
0.00518937
0.00517535
0.00516138
0.00514745
0.00513357
0.00511972
0.00510592
0.00509217
0.00507846
0.00506479
0.00505116
0.00503758
0.00502404
0.00501054
0.00499709
0.00498367
0.0049703
0.00495697
0.00494368
0.00493044
0.00491723
0.00490407
0.00489094
0.00487786
0.00486482
0.00485182
0.00483886
0.00482593
0.00481305
0.00480021
0.00478741
0.00477465
0.00476193
0.00474925
0.0047366
0.004724
0.00471143
0.0046989
0.00468642
0.00467397
0.00466155
0.00464918
0.00463685
0.00462455
0.00461229
0.00460007
0.00458788
0.00457574
0.00456363
0.00455155
0.00453952
0.00452752
0.00451556
0.00450363
0.00449174
0.00447989
0.00446807
0.00445629
0.00444455
0.00443284
0.00442116
0.00440953
0.00439793
0.00438636
0.00437483
0.00436333
0.00435187
0.00434044
0.00432905
0.0043177
0.00430637
0.00429509
0.00428383
0.00427261
0.00426143
0.00425028
0.00423916
0.00422808
0.00421703
0.00420601
0.00419503
0.00418408
0.00417316
0.00416228
0.00415143
0.00414061
0.00412983
0.00411908
0.00410836
0.00409767
0.00408702
0.0040764
0.00406581
0.00405525
0.00404473
0.00403424
0.00402377
0.00401335
0.00400295
0.00399258
0.00398225
0.00397195
0.00396167
0.00395143
0.00394122
0.00393105
0.0039209
0.00391078
0.0039007
0.00389064
0.00388062
0.00387062
0.00386066
0.00385073
0.00384083
0.00383095
0.00382111
0.0038113
0.00380152
0.00379176
0.00378204
0.00377235
0.00376269
0.00375305
0.00374345
0.00373388
0.00372433
0.00371482
0.00370533
0.00369587
0.00368644
0.00367704
0.00366767
0.00365833
0.00364902
0.00363974
0.00363048
0.00362125
0.00361206
0.00360289
0.00359374
0.00358463
0.00357555
0.00356649
0.00355746
0.00354846
0.00353949
0.00353055
0.00352163
0.00351274
0.00350388
0.00349505
0.00348624
0.00347746
0.00346871
0.00345999
0.0034513
0.00344263
0.00343399
0.00342537
0.00341679
0.00340823
0.0033997
0.00339119
0.00338271
0.00337426
0.00336584
0.00335744
0.00334907
0.00334073
0.00333241
0.00332412
0.00331585
0.00330762
0.00329941
0.00329122
0.00328306
0.00327493
0.00326683
0.00325875
0.00325069
0.00324267
0.00323467
0.00322669
0.00321874
0.00321082
0.00320293
0.00319505
0.00318721
0.00317939
0.0031716
0.00316383
0.00315609
0.00314837
0.00314068
0.00313302
0.00312538
0.00311777
0.00311018
0.00310262
0.00309508
0.00308757
0.00308008
0.00307262
0.00306518
0.00305777
0.00305039
0.00304303
0.00303569
0.00302839
0.0030211
0.00301384
0.00300661
0.0029994
0.00299221
0.00298505
0.00297792
0.00297081
0.00296373
0.00295667
0.00294963
0.00294262
0.00293564
0.00292868
0.00292174
0.00291483
0.00290794
0.00290108
0.00289424
0.00288743
0.00288064
0.00287388
0.00286714
0.00286043
0.00285374
0.00284707
0.00284043
0.00283382
0.00282723
0.00282066
0.00281412
0.0028076
0.0028011
0.00279463
0.00278819
0.00278177
0.00277537
0.002769
0.00276265
0.00275633
0.00275003
0.00274375
0.0027375
0.00273127
0.00272507
0.00271889
0.00271274
0.00270661
0.0027005
0.00269442
0.00268836
0.00268233
0.00267632
0.00267033
0.00266437
0.00265843
0.00265252
0.00264663
0.00264077
0.00263493
0.00262911
0.00262332
0.00261755
0.0026118
0.00260608
0.00260038
0.00259471
0.00258906
0.00258344
0.00257784
0.00257226
0.00256671
0.00256118
0.00255567
0.00255019
0.00254473
0.0025393
0.00253389
0.00252851
0.00252314
0.00251781
0.00251249
0.0025072
0.00250194
0.0024967
0.00249148
0.00248628
0.00248111
0.00247597
0.00247085
0.00246575
0.00246067
0.00245562
0.0024506
0.0024456
0.00244062
0.00243566
0.00243073
0.00242583
0.00242094
0.00241608
0.00241125
0.00240644
0.00240165
0.00239689
0.00239215
0.00238743
0.00238274
0.00237808
0.00237343
0.00236881
0.00236422
0.00235965
0.0023551
0.00235058
0.00234608
0.0023416
0.00233715
0.00233272
0.00232832
0.00232394
0.00231958
0.00231525
0.00231095
0.00230666
0.0023024
0.00229817
0.00229396
0.00228977
0.00228561
0.00228147
0.00227735
0.00227326
0.00226919
0.00226515
0.00226113
0.00225714
0.00225317
0.00224922
0.0022453
0.0022414
0.00223752
0.00223367
0.00222985
0.00222605
0.00222227
0.00221851
0.00221478
0.00221108
0.0022074
0.00220374
0.00220011
0.0021965
0.00219291
0.00218935
0.00218582
0.0021823
0.00217882
0.00217535
0.00217191
0.0021685
0.00216511
0.00216174
0.0021584
0.00215508
0.00215178
0.00214851
0.00214526
0.00214204
0.00213884
0.00213567
0.00213252
0.0021294
0.0021263
0.00212322
0.00212017
0.00211714
0.00211413
0.00211115
0.0021082
0.00210527
0.00210236
0.00209948
0.00209662
0.00209378
0.00209097
0.00208819
0.00208542
0.00208269
0.00207997
0.00207728
0.00207462
0.00207198
0.00206936
0.00206677
0.0020642
0.00206165
0.00205913
0.00205664
0.00205417
0.00205172
0.0020493
0.0020469
0.00204452
0.00204217
0.00203984
0.00203754
0.00203526
0.00203301
0.00203078
0.00202857
0.00202639
0.00202423
0.0020221
0.00201999
0.0020179
0.00201584
0.0020138
0.00201179
0.0020098
0.00200783
0.00200589
0.00200397
0.00200208
0.00200021
0.00199836
0.00199654
0.00199474
0.00199297
0.00199122
0.00198949
0.00198779
0.00198611
0.00198445
0.00198282
0.00198121
0.00197963
0.00197807
0.00197653
0.00197502
0.00197353
0.00197206
0.00197062
0.0019692
0.00196781
0.00196644
0.00196509
0.00196376
0.00196246
0.00196118
0.00195993
0.0019587
0.00195749
0.00195631
0.00195515
0.00195401
0.0019529
0.0019518
0.00195074
0.00194969
0.00194867
0.00194767
0.0019467
0.00194574
0.00194482
0.00194391
0.00194303
0.00194216
0.00194133
0.00194051
0.00193972
0.00193895
0.0019382
0.00193748
0.00193678
0.0019361
0.00193544
0.00193481
0.0019342
0.00193361
0.00193304
0.0019325
0.00193198
0.00193148
0.001931
0.00193055
0.00193011
0.0019297
0.00192931
0.00192895
0.0019286
0.00192828
0.00192798
0.0019277
0.00192744
0.00192721
0.00192699
0.0019268
0.00192663
0.00192648
0.00192635
0.00192625
0.00192616
0.0019261
0.00192606
0.00192603
)
;

boundaryField
{
    bottom
    {
        type            fixedValue;
        value           uniform 0.1;
    }
    top
    {
        type            zeroGradient;
    }
    walls
    {
        type            zeroGradient;
    }
}


// ************************************************************************* //
