/*--------------------------------*- C++ -*----------------------------------*\
| =========                 |                                                 |
| \\      /  F ield         | foam-extend: Open Source CFD                    |
|  \\    /   O peration     | Version:     5.0                                |
|   \\  /    A nd           | Web:         http://www.foam-extend.org         |
|    \\/     M anipulation  |                                                 |
\*---------------------------------------------------------------------------*/
FoamFile
{
    version     2.0;
    format      ascii;
    class       surfaceScalarField;
    location    "20000";
    object      phi;
}
// * * * * * * * * * * * * * * * * * * * * * * * * * * * * * * * * * * * * * //

dimensions      [0 3 -1 0 0 0 0];

internalField   nonuniform List<scalar> 
1499
(
-2.66421e-14
1.05941e-15
2.62465e-14
-2.66495e-14
4.57607e-15
-2.22724e-14
3.63601e-14
-7.36132e-15
-2.08113e-14
-1.90465e-15
3.96391e-14
-2.38471e-14
3.4391e-14
-3.18753e-14
-1.29598e-14
1.37085e-14
-1.26672e-14
2.81169e-14
1.9428e-14
-1.90882e-14
-5.26432e-14
5.73135e-14
-2.15723e-14
2.3861e-14
-1.51983e-14
2.86818e-14
-1.92383e-14
8.07835e-15
-5.17713e-14
4.89716e-14
-9.44614e-15
2.80894e-15
-5.81703e-14
3.61144e-14
1.27304e-14
4.15918e-14
-5.56224e-14
1.28057e-14
7.8331e-15
3.33934e-14
-2.62322e-14
2.96961e-14
-7.15222e-14
8.8843e-15
3.16687e-14
-3.98399e-14
6.99346e-14
1.27872e-14
-2.85619e-14
-1.3587e-14
-2.39906e-14
2.78888e-14
1.00405e-14
-4.82182e-14
6.54104e-14
-4.7172e-14
6.58992e-14
-5.6457e-14
5.00649e-14
-2.56926e-14
-7.28324e-15
-4.2191e-14
2.29825e-14
9.17519e-15
-2.65216e-14
-8.71725e-15
5.5396e-14
3.16412e-15
-1.10724e-14
-9.75605e-15
1.64452e-14
-1.40152e-14
-1.28782e-14
-1.82564e-14
1.39557e-14
1.43346e-14
8.39116e-15
-3.80243e-14
9.57866e-15
3.40111e-15
-1.19401e-14
-1.17126e-14
-2.15347e-15
4.452e-14
-2.8433e-15
-4.05574e-14
5.32454e-14
-4.12081e-14
1.49355e-14
1.43589e-14
1.36765e-14
-5.57321e-14
2.23809e-14
3.6985e-14
-3.27997e-14
-3.31641e-14
-2.34933e-15
3.73586e-14
-1.08409e-14
1.97192e-14
4.3201e-14
-5.18895e-14
1.00944e-14
-2.87264e-14
1.73165e-14
-1.51729e-14
3.97089e-14
-2.43519e-14
-9.67529e-15
-1.50208e-15
1.25844e-14
4.24479e-14
-4.38908e-14
1.75778e-14
-1.5282e-14
-7.35286e-15
-3.98234e-14
5.26073e-14
-4.94554e-14
5.86899e-14
-3.71681e-14
6.45102e-14
-4.72635e-14
-3.26102e-14
6.88747e-14
-5.85213e-14
1.87393e-14
2.55637e-14
-5.421e-14
6.92771e-14
-8.00209e-14
-1.84877e-14
5.8006e-14
-2.91721e-14
8.38281e-16
2.99148e-14
-2.55206e-14
-2.71002e-14
3.38423e-14
-3.73805e-14
3.91198e-14
2.10332e-14
-3.43944e-14
-2.03574e-14
4.01211e-14
-1.53889e-14
-4.84676e-14
5.91564e-14
-1.23281e-14
-5.1893e-14
3.48821e-14
3.38934e-14
-4.27343e-14
3.75448e-14
5.04338e-15
6.80768e-15
-3.83298e-14
8.1591e-15
9.61916e-15
2.71683e-14
-2.12141e-14
-3.41504e-15
2.94287e-14
-3.40133e-14
-1.0384e-15
6.31542e-14
-7.8902e-14
1.71742e-14
3.43639e-14
-4.5154e-14
3.51269e-14
-1.05033e-14
1.99729e-14
-5.6927e-14
-7.58555e-15
2.2598e-14
-2.28343e-14
2.59786e-14
5.54601e-14
-3.70672e-14
1.19448e-14
-5.20682e-14
2.82621e-14
1.39884e-14
4.38442e-14
-6.47632e-14
1.59426e-14
1.43515e-14
2.49475e-16
-1.38236e-14
3.16644e-14
-1.38288e-14
-1.18995e-14
-1.3565e-14
3.52227e-14
-4.16171e-14
3.52164e-14
-4.16192e-14
7.5742e-15
5.53054e-15
2.28322e-14
-2.24372e-14
-8.46598e-15
2.43666e-14
-5.26844e-15
-2.26542e-14
4.18787e-14
-3.5125e-14
5.67745e-14
-5.10861e-14
-2.12284e-15
-4.09665e-15
-2.20293e-15
1.50514e-14
-4.95868e-14
-1.51849e-16
4.817e-14
-1.05407e-15
5.79025e-16
2.12729e-15
4.71107e-17
1.7232e-15
-2.76773e-14
3.28968e-14
2.88017e-15
-5.74253e-14
3.42771e-14
3.57805e-14
-4.06284e-14
-1.15117e-14
6.24003e-15
-7.82122e-15
5.255e-14
6.75849e-15
2.38881e-14
-4.08909e-14
-7.90685e-15
5.6818e-14
-4.3286e-14
-4.00513e-14
2.26139e-14
3.09736e-14
-2.51386e-14
8.84017e-15
-4.87458e-15
1.71201e-14
-3.54832e-16
-1.03467e-14
2.72057e-14
-6.07556e-14
-6.51014e-15
3.86272e-14
-6.68113e-15
7.46703e-14
-9.18534e-14
6.55325e-14
-1.78012e-14
-1.04497e-13
1.07502e-13
-2.24761e-14
1.60847e-14
-3.83767e-14
-5.74926e-15
4.66307e-15
-9.27171e-14
1.25475e-13
-3.99797e-14
-2.00269e-14
-8.14004e-14
-2.13096e-16
5.98474e-14
5.00685e-14
-2.658e-14
5.71145e-14
-5.16582e-14
8.51173e-14
-7.55991e-14
3.71873e-14
4.13332e-15
-4.01243e-14
1.79331e-13
-1.972e-13
1.09031e-13
-1.11607e-13
-9.53226e-14
2.1155e-13
-1.3833e-13
1.79724e-13
-1.12202e-14
-3.24754e-14
-8.51188e-14
7.2231e-14
1.41434e-13
-3.84731e-14
-8.17133e-14
-1.98321e-13
7.09956e-15
3.1121e-14
4.67647e-14
-1.23559e-13
1.88225e-13
-9.84298e-14
2.27082e-13
-1.73218e-13
2.96053e-13
-3.00893e-13
3.15063e-14
-1.05766e-13
-3.36458e-14
2.18674e-13
-9.41388e-14
7.60221e-14
-1.47771e-13
4.009e-14
-3.89727e-15
-1.79352e-13
4.25794e-13
-3.69285e-13
1.80519e-13
1.14792e-13
8.44926e-14
-2.91346e-13
7.72795e-14
1.38007e-13
-1.06106e-13
-1.29938e-14
1.31455e-13
-2.58476e-13
1.75263e-13
-3.96123e-14
-2.61288e-14
-1.55011e-13
1.67326e-14
1.62525e-13
-2.46752e-15
8.76954e-15
-1.90049e-13
1.68782e-13
2.55618e-14
3.19468e-14
-2.62664e-14
8.74297e-15
-5.53063e-14
4.38484e-14
1.59633e-15
1.71665e-13
-2.96743e-13
1.56439e-13
1.76821e-14
-1.58147e-13
1.71737e-13
2.89768e-14
-1.21421e-13
1.71052e-13
-4.36922e-14
-1.72443e-13
3.25058e-13
-1.63368e-13
1.56828e-13
-2.09405e-13
8.49758e-14
-3.32181e-13
2.4336e-13
1.29804e-13
-1.44233e-14
-9.83281e-14
-4.91538e-14
-1.17888e-13
3.21308e-13
-3.33966e-14
2.50276e-16
4.80524e-14
-2.10798e-13
1.37742e-13
1.09782e-13
-3.16146e-13
1.28847e-13
1.57421e-14
-3.65975e-14
4.19664e-13
-3.64273e-13
1.85707e-13
-6.58037e-14
3.68733e-14
-2.66973e-13
1.37818e-13
6.48054e-15
9.64893e-14
-5.64019e-14
1.0586e-14
1.80421e-13
-5.07751e-14
-1.2182e-14
-1.26075e-13
1.09877e-13
1.07647e-13
-2.49634e-13
1.58633e-13
8.86248e-14
3.72272e-16
1.10249e-14
1.13795e-13
3.771e-14
-1.92496e-13
1.09611e-13
-3.3196e-15
1.51084e-15
-1.27575e-13
3.89967e-15
-1.1589e-15
1.07126e-13
-1.905e-13
1.10173e-13
-3.76031e-14
1.06066e-13
1.49939e-13
-9.51969e-14
6.09813e-14
-4.71901e-14
-8.95333e-15
-4.94062e-14
1.58625e-13
1.86403e-14
-1.19367e-13
-1.64418e-13
1.66803e-13
-4.53586e-14
4.47367e-14
-2.60169e-14
3.60535e-14
1.38093e-13
-1.55736e-13
6.12371e-14
-5.22798e-14
9.64031e-14
-6.83801e-14
2.17284e-14
-8.27638e-14
6.8014e-14
4.64745e-14
3.63204e-14
-1.59993e-13
-6.2476e-14
1.6177e-13
1.01627e-13
-1.88209e-13
1.34786e-13
-1.4024e-13
4.17957e-14
-5.19637e-14
8.93131e-14
-2.32265e-13
1.75773e-13
-7.0266e-14
-3.85419e-14
8.16261e-15
2.14546e-14
1.99004e-14
-8.64487e-14
2.45785e-14
1.06601e-13
-3.58057e-14
3.23084e-14
-1.48819e-13
2.37663e-14
5.51226e-14
2.98891e-14
-4.02913e-14
-5.02699e-15
2.05863e-13
-1.45255e-13
2.48085e-14
1.73581e-14
3.77329e-14
-1.41665e-14
-6.82072e-14
9.20386e-14
-3.72906e-14
-9.9915e-14
1.21167e-13
-7.02835e-14
9.4315e-14
-6.54922e-14
9.57851e-14
-4.31012e-14
1.545e-15
1.54861e-14
1.52706e-15
9.52637e-14
-2.67417e-14
2.63336e-14
-8.21432e-14
-8.68902e-14
9.84663e-14
-3.64184e-14
2.3073e-14
7.42809e-14
8.95629e-15
-7.01113e-14
9.88947e-14
-3.83459e-14
-1.01459e-13
6.79257e-14
1.45507e-14
2.23641e-16
5.3198e-14
-1.26755e-13
9.01547e-14
1.29362e-14
-5.84445e-14
1.17253e-13
-1.59135e-14
9.18059e-14
-1.52281e-13
7.33461e-14
-3.55318e-14
2.45656e-14
5.42912e-14
5.35746e-15
-6.42944e-14
-3.91247e-14
2.56322e-14
6.06585e-14
4.80377e-14
1.86663e-14
-9.64287e-14
2.8526e-14
6.9821e-14
-1.65236e-14
-1.71214e-14
8.73501e-14
-1.01544e-14
-1.04084e-13
1.4883e-13
-8.51971e-14
4.42009e-14
-7.07771e-14
4.01942e-14
-3.16239e-14
1.11019e-13
-3.96999e-14
5.11554e-14
5.62974e-14
-4.22673e-14
-3.21288e-14
7.37369e-14
-5.27762e-15
4.12404e-14
1.95883e-14
4.77065e-14
9.37208e-15
-1.481e-15
4.52378e-14
-1.09758e-13
1.17293e-13
-2.05152e-14
5.881e-14
7.76646e-14
9.94093e-16
-3.95113e-14
3.00688e-14
1.23287e-13
-4.07105e-14
-7.69651e-15
-1.24072e-14
1.18796e-13
-5.01309e-14
2.01381e-14
5.6626e-14
8.38164e-15
6.53041e-14
-1.38719e-14
1.26965e-14
2.67825e-15
-2.91584e-16
4.00108e-14
-1.0914e-14
4.82042e-14
3.62841e-14
2.3594e-14
2.51146e-14
-1.77628e-14
7.39061e-14
5.56422e-14
-4.01597e-14
-4.1341e-14
1.23183e-14
2.41867e-14
1.37131e-15
2.44578e-14
1.95645e-14
2.34703e-14
6.20481e-14
-4.26506e-14
3.67835e-15
2.99914e-14
-3.62368e-14
7.53592e-14
-2.60994e-14
3.23688e-14
-5.17187e-14
1.06421e-13
-9.94586e-14
1.06363e-13
-9.80326e-14
5.41987e-14
3.8656e-14
-3.40538e-14
6.13047e-14
6.15522e-14
2.95481e-14
-6.82244e-14
-1.4901e-15
7.36456e-14
2.68881e-14
-2.18432e-14
2.39417e-14
-2.4691e-14
4.12893e-14
-3.70704e-14
5.85504e-14
-4.47992e-14
5.40013e-14
6.19876e-14
5.44327e-14
2.24902e-14
-4.02647e-14
-2.3174e-14
8.41195e-14
-3.41019e-14
-1.55745e-14
1.68809e-14
3.39682e-14
9.02949e-15
4.56239e-14
-2.88228e-14
3.50478e-14
5.52136e-14
-3.31462e-14
-3.04268e-15
6.07958e-14
5.26601e-15
4.13602e-14
-1.01319e-14
3.79307e-14
4.19618e-14
-1.77224e-14
4.00012e-14
2.11014e-14
5.76325e-14
2.61757e-14
-1.34463e-14
2.06303e-14
5.03778e-14
7.29712e-14
1.51864e-14
1.97749e-14
5.09247e-14
4.86326e-14
1.62815e-14
-4.70242e-15
8.72747e-14
1.16683e-14
4.78228e-14
3.08385e-14
-2.1503e-15
6.97232e-14
-4.20653e-15
4.35864e-14
5.8473e-14
1.09168e-14
4.91081e-14
6.63651e-14
3.43906e-15
3.00912e-14
2.00792e-14
1.00686e-13
-1.63443e-14
5.65403e-14
4.18011e-14
5.29694e-15
3.5732e-14
2.94366e-14
5.68943e-14
-2.43154e-14
4.72339e-14
6.73748e-14
3.88999e-14
-2.38922e-14
6.26781e-14
2.74874e-14
3.85531e-14
3.05258e-14
-2.02614e-14
7.84741e-14
6.31273e-15
4.66162e-14
2.39726e-14
2.96186e-14
-5.88692e-15
4.47281e-14
4.88028e-14
1.60757e-14
3.08998e-14
6.23238e-14
1.41138e-14
6.09149e-14
3.09439e-14
-2.38062e-14
5.84846e-14
2.92371e-14
4.31522e-14
2.99726e-14
6.87485e-14
3.6454e-14
1.3723e-14
2.40732e-14
7.0419e-14
2.0763e-14
2.06967e-14
1.19782e-14
2.62842e-14
5.41902e-14
3.69456e-14
-4.28849e-15
3.75126e-14
2.23466e-14
2.34196e-14
5.89452e-14
2.77462e-14
5.03807e-14
-8.83852e-15
6.18287e-14
4.0967e-14
7.9953e-15
2.50183e-14
6.72641e-15
5.28616e-14
2.39341e-14
2.61043e-14
-2.78038e-14
6.07356e-14
1.45343e-14
1.06614e-14
2.17964e-14
1.66693e-14
3.73598e-14
1.25457e-14
4.99586e-14
-2.12412e-14
6.41145e-14
8.1187e-16
2.54992e-14
2.06431e-14
8.65912e-15
5.55492e-14
-1.83854e-14
3.84849e-14
2.42075e-14
1.56698e-14
2.33637e-14
2.35221e-14
4.31341e-14
-1.58441e-15
3.64865e-14
4.95767e-14
2.32711e-14
1.69284e-14
3.95913e-14
4.32345e-14
4.28894e-14
1.8937e-14
5.17558e-14
4.39328e-14
1.95144e-14
3.20093e-14
3.69895e-14
2.36794e-14
6.19039e-14
1.72492e-14
4.99102e-14
3.54823e-14
9.43117e-15
4.21376e-14
3.64228e-15
3.77777e-14
2.37206e-14
6.09636e-14
-2.12596e-14
4.55623e-14
5.39694e-14
3.31259e-14
4.23841e-14
8.08086e-15
3.75177e-14
1.11296e-14
3.72285e-14
2.76928e-14
2.9337e-14
4.2975e-14
2.46382e-14
3.3262e-14
1.77332e-14
1.77684e-14
4.1017e-14
4.13308e-14
2.63122e-14
2.36725e-14
3.81294e-14
2.53293e-14
4.10531e-14
2.16753e-14
3.10171e-14
1.82013e-14
6.51835e-14
1.59382e-14
2.74486e-14
2.04301e-14
1.08444e-14
5.38302e-14
2.63573e-14
2.87425e-14
-7.10587e-15
4.70784e-14
2.46376e-14
3.22171e-14
4.13661e-14
1.28778e-14
1.26562e-14
4.60804e-14
3.12904e-14
1.86619e-14
4.19943e-14
2.60649e-14
2.37978e-14
4.44856e-14
1.15641e-14
5.55254e-14
-3.0824e-15
3.62199e-14
3.77506e-14
-4.17877e-17
5.18525e-14
2.15831e-14
2.96745e-14
2.78905e-14
3.46143e-14
2.62045e-14
3.1759e-14
3.61916e-14
2.68822e-14
2.48756e-14
1.48582e-14
1.66669e-14
2.62306e-14
2.29602e-14
3.8577e-14
3.35487e-14
3.54364e-14
1.41494e-14
2.53727e-14
2.78603e-14
3.74837e-14
1.49257e-14
2.49614e-14
2.22166e-14
3.38555e-14
3.69418e-14
1.22882e-14
3.70393e-14
2.47869e-14
7.50414e-15
4.00213e-14
3.60076e-14
1.4955e-14
4.87282e-14
3.40611e-14
2.1964e-14
2.57362e-14
3.95168e-14
4.44914e-14
4.35734e-14
3.64679e-14
2.27745e-14
3.423e-14
3.76788e-14
5.50777e-15
4.76408e-14
4.07486e-14
3.23894e-14
3.15956e-14
3.46711e-14
2.06103e-14
4.81844e-14
3.08058e-14
2.18688e-14
2.24263e-14
5.56047e-14
1.62298e-14
2.97876e-14
4.31942e-14
3.53838e-14
2.67098e-14
3.31301e-14
3.8092e-14
3.1074e-14
3.52213e-14
2.96929e-14
2.70825e-14
3.23759e-14
3.40787e-14
3.6228e-14
2.13005e-14
4.599e-14
1.79929e-14
2.76157e-14
3.66804e-14
5.0592e-14
9.65517e-15
2.47812e-14
-4.12223e-15
2.29485e-14
1.3661e-14
2.80394e-14
2.49985e-14
4.14041e-14
8.42377e-15
2.08869e-14
3.96909e-14
1.54214e-14
3.54253e-14
3.77304e-14
1.7787e-14
3.92707e-14
3.22976e-14
4.28179e-14
2.39583e-14
1.99074e-14
3.42477e-14
1.18813e-14
5.20464e-14
3.66937e-14
5.61767e-14
2.63507e-14
1.99428e-14
5.08747e-14
2.97067e-14
4.16251e-14
1.18742e-14
4.37815e-14
4.90128e-14
6.00375e-14
3.48625e-14
3.75914e-14
1.74332e-14
6.38242e-14
3.72102e-14
5.96342e-14
2.93831e-14
5.31744e-14
4.14597e-14
3.33292e-14
4.94494e-14
4.37886e-14
5.8365e-14
3.55475e-15
6.23847e-14
3.05739e-14
4.61489e-14
5.10095e-14
2.55917e-14
4.96391e-14
4.47782e-14
4.69911e-14
3.93261e-14
5.60833e-14
3.47969e-14
5.71101e-14
4.70103e-14
3.87665e-14
2.49954e-14
3.51036e-14
6.54541e-14
3.9976e-14
5.25391e-14
3.06551e-14
5.68522e-14
3.04831e-14
3.8584e-14
5.57421e-14
3.7536e-14
4.2673e-14
7.09376e-14
3.17335e-14
4.36381e-14
5.37014e-14
5.45114e-14
6.2323e-14
2.42235e-14
4.76524e-14
3.05313e-14
1.46477e-14
5.04935e-14
4.32301e-14
4.85526e-14
4.57161e-14
4.18865e-14
4.5313e-14
4.48206e-14
4.41154e-14
4.36636e-14
3.93256e-14
4.99983e-14
6.02964e-14
3.31332e-14
5.09045e-14
3.8322e-14
3.97027e-14
4.49531e-14
2.23373e-14
2.67343e-14
5.14746e-14
4.63286e-14
5.52003e-14
4.39878e-14
4.40323e-14
4.4392e-14
5.81807e-14
3.65013e-14
5.9126e-14
5.82351e-14
5.2194e-14
4.89977e-14
6.2508e-14
4.91551e-14
4.39798e-14
6.88993e-14
5.67408e-14
4.17071e-14
5.49048e-14
6.56354e-14
4.66994e-14
5.62564e-14
7.24277e-14
5.30612e-14
5.35146e-14
6.27344e-14
6.05068e-14
5.27211e-14
6.61365e-14
4.65155e-14
4.80426e-14
4.99681e-14
7.47653e-14
5.53915e-14
6.23069e-14
4.15187e-14
5.93823e-14
5.02787e-14
4.11166e-14
5.16673e-14
5.30545e-14
6.5619e-14
4.34528e-14
4.41067e-14
4.59578e-14
5.62082e-14
4.59245e-14
4.25552e-14
4.94423e-14
3.82305e-14
3.49981e-14
3.76724e-14
5.45049e-14
3.86058e-14
4.60063e-14
2.90968e-14
5.00615e-14
4.595e-14
4.82135e-14
2.86377e-14
5.02807e-14
3.5542e-14
4.61855e-14
3.10981e-14
4.15605e-14
4.02822e-14
3.10899e-14
3.30139e-14
4.82521e-14
3.47802e-14
3.88655e-14
2.05162e-14
2.95369e-14
2.05867e-14
4.89055e-14
2.67868e-14
2.28225e-14
3.57183e-14
5.00858e-14
3.11864e-14
4.77601e-14
3.73267e-14
3.72943e-14
3.95315e-14
3.6079e-14
4.39862e-14
4.10137e-14
4.3954e-14
3.79301e-14
4.65094e-14
4.47581e-14
4.87181e-14
4.25685e-14
1.97086e-14
3.93709e-14
6.04284e-14
3.05333e-14
5.10476e-14
5.12704e-14
5.03265e-14
4.63294e-14
5.16921e-14
5.63982e-14
5.63775e-14
5.3477e-14
6.32296e-14
4.84474e-14
4.80608e-14
6.16109e-14
4.59888e-14
4.87416e-14
6.0241e-14
4.91779e-14
4.77965e-14
2.59197e-14
4.03975e-14
3.94275e-14
5.10921e-14
4.12659e-14
6.14856e-14
4.47283e-14
4.32027e-14
2.97228e-14
4.42741e-14
5.77551e-14
4.96262e-14
4.5217e-14
5.44272e-14
3.88916e-14
4.6665e-14
4.62207e-14
4.72505e-14
4.58631e-14
4.49071e-14
3.94442e-14
5.18438e-14
4.43915e-14
4.10766e-14
5.32262e-14
5.73457e-14
4.60256e-14
6.16433e-14
4.10644e-14
6.05741e-14
4.85854e-14
4.18964e-14
4.8033e-14
5.19399e-14
4.6555e-14
5.48582e-14
4.46376e-14
4.16577e-14
3.78665e-14
3.40717e-14
4.44158e-14
3.60565e-14
2.24095e-14
2.83678e-14
3.84997e-14
2.41086e-14
3.44187e-14
3.53704e-14
2.50428e-14
2.96982e-14
3.87961e-14
2.91994e-14
3.94123e-14
2.78178e-14
3.97307e-14
3.81096e-14
4.71132e-14
4.97233e-14
2.70984e-14
4.20743e-14
2.27413e-14
3.54192e-14
3.2358e-14
2.98445e-14
4.69544e-14
1.62923e-14
3.41831e-14
4.34116e-14
3.85087e-14
1.91251e-14
3.89526e-14
2.96546e-14
2.22923e-14
3.40786e-14
3.50938e-14
2.71342e-14
1.92588e-14
2.93655e-14
2.19169e-14
3.00729e-14
3.03018e-14
3.30658e-14
7.09395e-15
2.19899e-14
2.11792e-14
3.83235e-15
2.03318e-14
2.40823e-14
3.09742e-15
1.73943e-14
9.23772e-15
6.14904e-15
6.54043e-15
1.83476e-14
5.54342e-15
2.2056e-14
1.46277e-14
1.96803e-14
1.75866e-14
1.08029e-14
8.19022e-15
4.54377e-15
2.16402e-14
1.32718e-14
2.3289e-14
4.14971e-15
8.81688e-15
9.55276e-15
1.84002e-14
1.58159e-14
-3.36661e-15
1.92187e-14
1.76211e-14
1.84051e-14
9.99207e-15
1.55238e-14
1.48716e-14
2.05032e-14
1.10429e-14
1.50874e-14
2.50786e-14
1.35161e-14
9.94438e-15
1.78251e-14
9.93369e-17
2.01718e-14
1.58368e-14
1.37243e-14
1.33246e-14
1.06789e-14
1.2649e-14
1.79931e-14
9.95387e-15
9.39141e-15
1.77903e-14
1.94817e-14
1.48778e-14
2.64368e-14
1.58862e-14
3.09565e-14
-3.85742e-16
2.90986e-14
1.06587e-14
2.08127e-14
2.19703e-14
1.0001e-14
1.54494e-14
1.08351e-14
1.24037e-14
1.5532e-15
2.26546e-14
5.72129e-16
9.90916e-15
4.20534e-15
9.85811e-15
1.67787e-14
1.13158e-14
5.04348e-15
1.27142e-14
9.11485e-15
1.58581e-14
1.86873e-14
2.2473e-14
1.43451e-14
2.10127e-14
1.88712e-14
1.28046e-14
1.77218e-14
2.10278e-14
1.91627e-14
2.26051e-14
2.59251e-14
2.47842e-14
1.88937e-14
2.3668e-14
1.23393e-14
5.08607e-15
2.03888e-14
1.83036e-14
1.5457e-14
3.02056e-14
1.38574e-14
7.39812e-15
1.64407e-14
1.98121e-14
1.4859e-14
5.38346e-15
2.19023e-14
2.65298e-14
1.14792e-14
2.68282e-14
1.11078e-14
2.24641e-14
1.34465e-14
2.1792e-14
1.42093e-14
2.71876e-14
1.90922e-14
2.20311e-14
2.82455e-14
2.0981e-14
2.4297e-14
3.40259e-14
2.49775e-14
2.21947e-14
2.6801e-14
2.72566e-14
2.92151e-14
3.32092e-14
3.01498e-14
2.2775e-14
3.39523e-14
3.10156e-14
2.73201e-14
3.81796e-14
2.89119e-14
3.54882e-14
3.61304e-14
2.70065e-14
2.70217e-14
2.87377e-14
3.34486e-14
2.5769e-14
3.51063e-14
2.83856e-14
2.82391e-14
2.84925e-14
3.18444e-14
3.28732e-14
3.16876e-14
3.1932e-14
3.20591e-14
2.53972e-14
3.84898e-14
2.72884e-14
1.92559e-14
3.18747e-14
3.48812e-14
2.98678e-14
2.56454e-14
3.03584e-14
3.88068e-14
3.42002e-14
4.08774e-14
3.69419e-14
3.18071e-14
3.6059e-14
3.12723e-14
2.49406e-14
3.32466e-14
2.67198e-14
2.22967e-14
1.33477e-14
2.57308e-14
3.36906e-14
2.63708e-14
2.42081e-14
2.83745e-14
2.59371e-14
3.08823e-14
2.40127e-14
2.14911e-14
2.90875e-14
1.85271e-14
2.61717e-14
3.08091e-14
2.6861e-14
2.55445e-14
3.08243e-14
3.07634e-14
1.15317e-14
2.65365e-14
2.78308e-14
2.40565e-14
2.72784e-14
3.22957e-14
2.96075e-14
3.79656e-14
2.82586e-14
2.91328e-14
1.66772e-14
1.65356e-14
2.28791e-14
1.12359e-14
1.96645e-14
1.64252e-14
1.81123e-14
2.35064e-14
2.18387e-14
2.91059e-14
2.41699e-14
1.98171e-14
3.57715e-14
2.15385e-14
2.04658e-14
2.2999e-14
2.88288e-14
1.55837e-14
1.98688e-14
3.1457e-14
3.04588e-14
1.09138e-14
2.85643e-14
2.34765e-14
2.91271e-14
2.83725e-14
3.16875e-14
3.02425e-14
1.91473e-14
2.12168e-14
2.01454e-14
1.81573e-14
1.95059e-14
1.88449e-14
2.72102e-14
3.38984e-14
3.34934e-14
2.37333e-14
2.59341e-14
2.37697e-14
2.65398e-14
2.62093e-14
2.72712e-14
1.75189e-14
2.59405e-14
2.72469e-14
4.04356e-14
2.41776e-14
3.78383e-14
4.63314e-14
3.32435e-14
3.58275e-14
3.12514e-14
3.37472e-14
2.72774e-14
3.84412e-14
3.28194e-14
3.05961e-14
3.54923e-14
3.30885e-14
2.5582e-14
2.84696e-14
2.90185e-14
3.11689e-14
3.3726e-14
4.12718e-14
3.00613e-14
3.79912e-14
3.55583e-14
3.68251e-14
3.78004e-14
2.94856e-14
3.65995e-14
3.4378e-14
3.38991e-14
2.54949e-14
2.41207e-14
3.22876e-14
3.16479e-14
2.8636e-14
2.91887e-14
2.35683e-14
2.57189e-14
2.57902e-14
)
;

boundaryField
{
    bottom
    {
        type            calculated;
        value           uniform 0;
    }
    top
    {
        type            calculated;
        value           uniform 2.96332e-14;
    }
    walls
    {
        type            calculated;
        value           uniform 0;
    }
}


// ************************************************************************* //
