/*--------------------------------*- C++ -*----------------------------------*\
| =========                 |                                                 |
| \\      /  F ield         | foam-extend: Open Source CFD                    |
|  \\    /   O peration     | Version:     5.0                                |
|   \\  /    A nd           | Web:         http://www.foam-extend.org         |
|    \\/     M anipulation  |                                                 |
\*---------------------------------------------------------------------------*/
FoamFile
{
    version     2.0;
    format      ascii;
    class       surfaceScalarField;
    location    "20000";
    object      phi.gas;
}
// * * * * * * * * * * * * * * * * * * * * * * * * * * * * * * * * * * * * * //

dimensions      [0 3 -1 0 0 0 0];

internalField   nonuniform List<scalar> 
1499
(
2.88792e-11
8.45888e-11
1.63442e-10
2.66623e-10
4.01932e-10
5.91917e-10
9.10705e-10
1.34872e-09
1.61862e-09
1.84121e-09
2.04195e-09
2.23162e-09
2.41509e-09
2.59483e-09
2.77216e-09
2.94788e-09
3.12247e-09
3.29624e-09
3.46939e-09
3.64207e-09
3.81437e-09
3.98636e-09
4.1581e-09
4.32962e-09
4.50095e-09
4.67213e-09
4.84316e-09
5.01407e-09
5.18486e-09
5.35555e-09
5.52614e-09
5.69665e-09
5.86707e-09
6.03742e-09
6.20771e-09
6.37792e-09
6.54808e-09
6.71818e-09
6.88822e-09
7.05821e-09
7.22815e-09
7.39805e-09
7.5679e-09
7.73771e-09
7.90748e-09
8.07721e-09
8.2469e-09
8.41656e-09
8.58618e-09
8.75578e-09
8.92534e-09
9.09487e-09
9.26437e-09
9.43384e-09
9.60329e-09
9.77271e-09
9.94211e-09
1.01115e-08
1.02808e-08
1.04501e-08
1.06195e-08
1.07887e-08
1.0958e-08
1.11272e-08
1.12965e-08
1.14657e-08
1.16349e-08
1.1804e-08
1.19732e-08
1.21423e-08
1.23114e-08
1.24805e-08
1.26496e-08
1.28187e-08
1.29877e-08
1.31568e-08
1.33258e-08
1.34948e-08
1.36638e-08
1.38328e-08
1.40018e-08
1.41708e-08
1.43397e-08
1.45087e-08
1.46776e-08
1.48465e-08
1.50154e-08
1.51843e-08
1.53532e-08
1.55221e-08
1.5691e-08
1.58598e-08
1.60287e-08
1.61975e-08
1.63663e-08
1.65352e-08
1.6704e-08
1.68728e-08
1.70416e-08
1.72104e-08
1.73791e-08
1.75479e-08
1.77167e-08
1.78854e-08
1.80542e-08
1.82229e-08
1.83917e-08
1.85604e-08
1.87291e-08
1.88978e-08
1.90665e-08
1.92352e-08
1.94039e-08
1.95726e-08
1.97413e-08
1.991e-08
2.00786e-08
2.02473e-08
2.04159e-08
2.05846e-08
2.07532e-08
2.09219e-08
2.10905e-08
2.12592e-08
2.14278e-08
2.15964e-08
2.1765e-08
2.19336e-08
2.21022e-08
2.22708e-08
2.24394e-08
2.2608e-08
2.27766e-08
2.29452e-08
2.31138e-08
2.32823e-08
2.34509e-08
2.36195e-08
2.3788e-08
2.39566e-08
2.41251e-08
2.42937e-08
2.44622e-08
2.46308e-08
2.47993e-08
2.49678e-08
2.51363e-08
2.53049e-08
2.54734e-08
2.56419e-08
2.58104e-08
2.59789e-08
2.61474e-08
2.63159e-08
2.64844e-08
2.66529e-08
2.68214e-08
2.69899e-08
2.71584e-08
2.73269e-08
2.74954e-08
2.76638e-08
2.78323e-08
2.80008e-08
2.81692e-08
2.83377e-08
2.85062e-08
2.86746e-08
2.88431e-08
2.90115e-08
2.918e-08
2.93484e-08
2.95169e-08
2.96853e-08
2.98537e-08
3.00222e-08
3.01906e-08
3.0359e-08
3.05275e-08
3.06959e-08
3.08643e-08
3.10327e-08
3.12012e-08
3.13696e-08
3.1538e-08
3.17064e-08
3.18748e-08
3.20432e-08
3.22116e-08
3.238e-08
3.25484e-08
3.27168e-08
3.28852e-08
3.30536e-08
3.3222e-08
3.33904e-08
3.35588e-08
3.37271e-08
3.38955e-08
3.40639e-08
3.42323e-08
3.44006e-08
3.4569e-08
3.47374e-08
3.49058e-08
3.50741e-08
3.52425e-08
3.54109e-08
3.55792e-08
3.57476e-08
3.59159e-08
3.60843e-08
3.62526e-08
3.6421e-08
3.65894e-08
3.67577e-08
3.69261e-08
3.70944e-08
3.72627e-08
3.74311e-08
3.75994e-08
3.77678e-08
3.79361e-08
3.81044e-08
3.82728e-08
3.84411e-08
3.86094e-08
3.87778e-08
3.89461e-08
3.91144e-08
3.92827e-08
3.94511e-08
3.96194e-08
3.97877e-08
3.9956e-08
4.01243e-08
4.02927e-08
4.0461e-08
4.06293e-08
4.07965e-08
4.07625e-08
2.12935e-08
6.87689e-10
-6.80953e-10
-9.40192e-10
-1.04868e-09
-1.10829e-09
-1.14598e-09
-1.17195e-09
-1.19094e-09
-1.20542e-09
-1.21682e-09
-1.22604e-09
-1.23364e-09
-1.24002e-09
-1.24545e-09
-1.25012e-09
-1.25419e-09
-1.25775e-09
-1.2609e-09
-1.26372e-09
-1.26624e-09
-1.26851e-09
-1.27056e-09
-1.27243e-09
-1.27414e-09
-1.27571e-09
-1.27714e-09
-1.27847e-09
-1.2797e-09
-1.28084e-09
-1.28191e-09
-1.28289e-09
-1.28383e-09
-1.28469e-09
-1.28551e-09
-1.28628e-09
-1.28699e-09
-1.28767e-09
-1.28832e-09
-1.28892e-09
-1.2895e-09
-1.29004e-09
-1.29056e-09
-1.29104e-09
-1.2915e-09
-1.29194e-09
-1.29235e-09
-1.29277e-09
-1.29314e-09
-1.29352e-09
-1.29387e-09
-1.2942e-09
-1.29452e-09
-1.29484e-09
-1.29514e-09
-1.29541e-09
-1.29568e-09
-1.29593e-09
-1.29617e-09
-1.2964e-09
-1.29662e-09
-1.29684e-09
-1.29706e-09
-1.29726e-09
-1.29747e-09
-1.29764e-09
-1.2978e-09
-1.29797e-09
-1.29812e-09
-1.29828e-09
-1.29842e-09
-1.29857e-09
-1.2987e-09
-1.29884e-09
-1.29896e-09
-1.29907e-09
-1.2992e-09
-1.2993e-09
-1.29941e-09
-1.29952e-09
-1.29962e-09
-1.29971e-09
-1.2998e-09
-1.29988e-09
-1.29998e-09
-1.30005e-09
-1.30012e-09
-1.30019e-09
-1.30026e-09
-1.30032e-09
-1.30038e-09
-1.30044e-09
-1.30049e-09
-1.30055e-09
-1.30059e-09
-1.30064e-09
-1.30067e-09
-1.30069e-09
-1.30073e-09
-1.30076e-09
-1.30078e-09
-1.30083e-09
-1.30085e-09
-1.30088e-09
-1.3009e-09
-1.30092e-09
-1.30093e-09
-1.30094e-09
-1.30096e-09
-1.30097e-09
-1.30098e-09
-1.301e-09
-1.30098e-09
-1.301e-09
-1.301e-09
-1.30099e-09
-1.30099e-09
-1.30099e-09
-1.30099e-09
-1.30097e-09
-1.30097e-09
-1.30093e-09
-1.30092e-09
-1.30091e-09
-1.3009e-09
-1.30088e-09
-1.30085e-09
-1.30082e-09
-1.3008e-09
-1.30078e-09
-1.30076e-09
-1.30073e-09
-1.30069e-09
-1.30066e-09
-1.30063e-09
-1.30058e-09
-1.30053e-09
-1.30049e-09
-1.30044e-09
-1.30043e-09
-1.30037e-09
-1.30031e-09
-1.30027e-09
-1.30022e-09
-1.30015e-09
-1.3001e-09
-1.30004e-09
-1.3e-09
-1.29994e-09
-1.29988e-09
-1.29983e-09
-1.29977e-09
-1.29971e-09
-1.29962e-09
-1.29957e-09
-1.2995e-09
-1.29942e-09
-1.29935e-09
-1.29929e-09
-1.29922e-09
-1.29915e-09
-1.29909e-09
-1.29903e-09
-1.29894e-09
-1.29889e-09
-1.29882e-09
-1.29874e-09
-1.29864e-09
-1.29855e-09
-1.29845e-09
-1.29836e-09
-1.29826e-09
-1.29818e-09
-1.29809e-09
-1.298e-09
-1.29792e-09
-1.29784e-09
-1.29776e-09
-1.29766e-09
-1.29756e-09
-1.29746e-09
-1.29738e-09
-1.29728e-09
-1.29719e-09
-1.29707e-09
-1.29698e-09
-1.29687e-09
-1.29676e-09
-1.29664e-09
-1.29654e-09
-1.29644e-09
-1.29632e-09
-1.2962e-09
-1.29609e-09
-1.29598e-09
-1.29586e-09
-1.29575e-09
-1.29562e-09
-1.29551e-09
-1.29538e-09
-1.29528e-09
-1.29515e-09
-1.29501e-09
-1.29489e-09
-1.29478e-09
-1.29464e-09
-1.29451e-09
-1.29437e-09
-1.29425e-09
-1.29411e-09
-1.29398e-09
-1.29382e-09
-1.29368e-09
-1.29354e-09
-1.29339e-09
-1.29324e-09
-1.2931e-09
-1.29295e-09
-1.29279e-09
-1.29264e-09
-1.2925e-09
-1.29234e-09
-1.2922e-09
-1.29203e-09
-1.29188e-09
-1.29171e-09
-1.29155e-09
-1.29139e-09
-1.29121e-09
-1.29107e-09
-1.2909e-09
-1.29074e-09
-1.29058e-09
-1.29041e-09
-1.29024e-09
-1.29007e-09
-1.28991e-09
-1.28974e-09
-1.28955e-09
-1.28939e-09
-1.28919e-09
-1.28902e-09
-1.28884e-09
-1.28867e-09
-1.28849e-09
-1.28831e-09
-1.28813e-09
-1.28794e-09
-1.28778e-09
-1.28759e-09
-1.28742e-09
-1.28722e-09
-1.287e-09
-1.28681e-09
-1.28661e-09
-1.28641e-09
-1.28623e-09
-1.28604e-09
-1.28584e-09
-1.28565e-09
-1.28545e-09
-1.28523e-09
-1.28502e-09
-1.28482e-09
-1.28462e-09
-1.28441e-09
-1.28419e-09
-1.28398e-09
-1.28377e-09
-1.28353e-09
-1.28333e-09
-1.28311e-09
-1.28291e-09
-1.28267e-09
-1.28246e-09
-1.28225e-09
-1.28201e-09
-1.2818e-09
-1.28158e-09
-1.28134e-09
-1.2811e-09
-1.28085e-09
-1.28063e-09
-1.28041e-09
-1.28019e-09
-1.27992e-09
-1.27968e-09
-1.27947e-09
-1.27922e-09
-1.27897e-09
-1.27874e-09
-1.27849e-09
-1.27823e-09
-1.278e-09
-1.27774e-09
-1.27751e-09
-1.27724e-09
-1.27697e-09
-1.2767e-09
-1.27644e-09
-1.27618e-09
-1.27592e-09
-1.27568e-09
-1.27541e-09
-1.27513e-09
-1.27487e-09
-1.2746e-09
-1.27433e-09
-1.27406e-09
-1.2738e-09
-1.27352e-09
-1.27325e-09
-1.27298e-09
-1.27267e-09
-1.2724e-09
-1.27211e-09
-1.27183e-09
-1.27157e-09
-1.27129e-09
-1.27097e-09
-1.27069e-09
-1.27043e-09
-1.27014e-09
-1.26984e-09
-1.26953e-09
-1.26926e-09
-1.26895e-09
-1.26865e-09
-1.26836e-09
-1.26805e-09
-1.26777e-09
-1.26745e-09
-1.26715e-09
-1.26684e-09
-1.26653e-09
-1.26622e-09
-1.26592e-09
-1.2656e-09
-1.26529e-09
-1.265e-09
-1.26468e-09
-1.26434e-09
-1.26403e-09
-1.26373e-09
-1.26342e-09
-1.26308e-09
-1.26275e-09
-1.2624e-09
-1.26207e-09
-1.26175e-09
-1.26141e-09
-1.26108e-09
-1.26076e-09
-1.26042e-09
-1.26009e-09
-1.25975e-09
-1.25939e-09
-1.25906e-09
-1.25873e-09
-1.25837e-09
-1.25801e-09
-1.25768e-09
-1.2573e-09
-1.25697e-09
-1.25659e-09
-1.25623e-09
-1.25586e-09
-1.25548e-09
-1.25513e-09
-1.25478e-09
-1.25442e-09
-1.25404e-09
-1.25366e-09
-1.2533e-09
-1.25294e-09
-1.25255e-09
-1.25218e-09
-1.25179e-09
-1.25142e-09
-1.25101e-09
-1.25064e-09
-1.25022e-09
-1.24983e-09
-1.24946e-09
-1.24908e-09
-1.24871e-09
-1.24831e-09
-1.24791e-09
-1.24753e-09
-1.24712e-09
-1.24671e-09
-1.2463e-09
-1.2459e-09
-1.24549e-09
-1.24508e-09
-1.24466e-09
-1.24425e-09
-1.24385e-09
-1.24342e-09
-1.24298e-09
-1.24258e-09
-1.24215e-09
-1.24172e-09
-1.24129e-09
-1.24085e-09
-1.24043e-09
-1.23997e-09
-1.23954e-09
-1.2391e-09
-1.23866e-09
-1.23823e-09
-1.23777e-09
-1.23732e-09
-1.23687e-09
-1.23644e-09
-1.23598e-09
-1.23554e-09
-1.2351e-09
-1.23465e-09
-1.23419e-09
-1.23371e-09
-1.23329e-09
-1.23281e-09
-1.23235e-09
-1.23188e-09
-1.23141e-09
-1.23095e-09
-1.23046e-09
-1.22998e-09
-1.22952e-09
-1.22904e-09
-1.22856e-09
-1.2281e-09
-1.22762e-09
-1.22712e-09
-1.22663e-09
-1.22617e-09
-1.22567e-09
-1.22519e-09
-1.22471e-09
-1.2242e-09
-1.22372e-09
-1.22321e-09
-1.22273e-09
-1.22219e-09
-1.22169e-09
-1.22121e-09
-1.22072e-09
-1.22018e-09
-1.21968e-09
-1.21916e-09
-1.21866e-09
-1.21814e-09
-1.2176e-09
-1.21709e-09
-1.21656e-09
-1.21603e-09
-1.2155e-09
-1.21497e-09
-1.21442e-09
-1.21388e-09
-1.21336e-09
-1.2128e-09
-1.21226e-09
-1.21172e-09
-1.21117e-09
-1.21064e-09
-1.21009e-09
-1.2095e-09
-1.20895e-09
-1.20839e-09
-1.20784e-09
-1.20726e-09
-1.20672e-09
-1.20616e-09
-1.20559e-09
-1.20502e-09
-1.20446e-09
-1.20389e-09
-1.20333e-09
-1.20273e-09
-1.20215e-09
-1.2016e-09
-1.20102e-09
-1.20042e-09
-1.19982e-09
-1.19921e-09
-1.19861e-09
-1.19803e-09
-1.19743e-09
-1.19685e-09
-1.19623e-09
-1.19564e-09
-1.19506e-09
-1.19444e-09
-1.19383e-09
-1.19322e-09
-1.19261e-09
-1.19201e-09
-1.1914e-09
-1.19075e-09
-1.19014e-09
-1.18951e-09
-1.18888e-09
-1.18824e-09
-1.1876e-09
-1.18697e-09
-1.18633e-09
-1.1857e-09
-1.18504e-09
-1.18442e-09
-1.18377e-09
-1.18311e-09
-1.18247e-09
-1.1818e-09
-1.18115e-09
-1.18048e-09
-1.17981e-09
-1.17915e-09
-1.17847e-09
-1.1778e-09
-1.17712e-09
-1.17646e-09
-1.17575e-09
-1.17507e-09
-1.17439e-09
-1.17371e-09
-1.17299e-09
-1.17231e-09
-1.17162e-09
-1.17093e-09
-1.17022e-09
-1.16954e-09
-1.16884e-09
-1.16814e-09
-1.16743e-09
-1.16672e-09
-1.16599e-09
-1.1653e-09
-1.16458e-09
-1.16388e-09
-1.16317e-09
-1.16245e-09
-1.16173e-09
-1.16099e-09
-1.16025e-09
-1.15951e-09
-1.15879e-09
-1.15803e-09
-1.15728e-09
-1.15654e-09
-1.15581e-09
-1.15508e-09
-1.15432e-09
-1.15358e-09
-1.15281e-09
-1.15204e-09
-1.15129e-09
-1.15052e-09
-1.14976e-09
-1.14899e-09
-1.14821e-09
-1.14744e-09
-1.14665e-09
-1.14587e-09
-1.14509e-09
-1.14431e-09
-1.14351e-09
-1.14273e-09
-1.14193e-09
-1.14115e-09
-1.14034e-09
-1.13954e-09
-1.13872e-09
-1.13794e-09
-1.13713e-09
-1.13633e-09
-1.13551e-09
-1.13468e-09
-1.13388e-09
-1.13305e-09
-1.13224e-09
-1.13138e-09
-1.13055e-09
-1.12972e-09
-1.12888e-09
-1.12805e-09
-1.1272e-09
-1.12634e-09
-1.1255e-09
-1.12465e-09
-1.12378e-09
-1.12294e-09
-1.12207e-09
-1.12121e-09
-1.12036e-09
-1.11948e-09
-1.11863e-09
-1.11774e-09
-1.11687e-09
-1.11599e-09
-1.1151e-09
-1.11422e-09
-1.11333e-09
-1.11242e-09
-1.11154e-09
-1.11064e-09
-1.10974e-09
-1.10883e-09
-1.10794e-09
-1.10704e-09
-1.10615e-09
-1.10522e-09
-1.10429e-09
-1.10337e-09
-1.10243e-09
-1.10151e-09
-1.10058e-09
-1.09966e-09
-1.09872e-09
-1.09778e-09
-1.09683e-09
-1.0959e-09
-1.09494e-09
-1.09399e-09
-1.09303e-09
-1.09208e-09
-1.09113e-09
-1.09015e-09
-1.08919e-09
-1.08823e-09
-1.08723e-09
-1.08625e-09
-1.08528e-09
-1.08428e-09
-1.0833e-09
-1.08232e-09
-1.08132e-09
-1.08031e-09
-1.07929e-09
-1.07831e-09
-1.07731e-09
-1.07631e-09
-1.0753e-09
-1.07429e-09
-1.07329e-09
-1.07224e-09
-1.07122e-09
-1.07019e-09
-1.06917e-09
-1.06813e-09
-1.06711e-09
-1.06605e-09
-1.06502e-09
-1.06398e-09
-1.06292e-09
-1.06185e-09
-1.06083e-09
-1.05976e-09
-1.05868e-09
-1.05762e-09
-1.05656e-09
-1.05548e-09
-1.0544e-09
-1.05332e-09
-1.05224e-09
-1.05116e-09
-1.05007e-09
-1.04898e-09
-1.04788e-09
-1.04678e-09
-1.04569e-09
-1.04457e-09
-1.04347e-09
-1.04236e-09
-1.04123e-09
-1.04011e-09
-1.03904e-09
-1.03792e-09
-1.0368e-09
-1.03565e-09
-1.03451e-09
-1.03335e-09
-1.0322e-09
-1.03105e-09
-1.02991e-09
-1.02874e-09
-1.02757e-09
-1.02642e-09
-1.02523e-09
-1.02405e-09
-1.02289e-09
-1.0217e-09
-1.02052e-09
-1.01931e-09
-1.01817e-09
-1.01697e-09
-1.01577e-09
-1.01456e-09
-1.01334e-09
-1.01212e-09
-1.01091e-09
-1.00973e-09
-1.00851e-09
-1.00727e-09
-1.00605e-09
-1.00481e-09
-1.0036e-09
-1.00233e-09
-1.00107e-09
-9.9983e-10
-9.98594e-10
-9.97357e-10
-9.96093e-10
-9.94811e-10
-9.93547e-10
-9.92267e-10
-9.91018e-10
-9.89734e-10
-9.88471e-10
-9.87195e-10
-9.85904e-10
-9.84618e-10
-9.83319e-10
-9.82053e-10
-9.80714e-10
-9.79443e-10
-9.78117e-10
-9.768e-10
-9.75489e-10
-9.74144e-10
-9.72826e-10
-9.71489e-10
-9.70157e-10
-9.68815e-10
-9.67496e-10
-9.66142e-10
-9.64801e-10
-9.63465e-10
-9.62114e-10
-9.60733e-10
-9.59346e-10
-9.57994e-10
-9.56621e-10
-9.55263e-10
-9.53868e-10
-9.52498e-10
-9.51092e-10
-9.49685e-10
-9.48297e-10
-9.46889e-10
-9.45467e-10
-9.44089e-10
-9.42651e-10
-9.41214e-10
-9.39791e-10
-9.38388e-10
-9.36998e-10
-9.35558e-10
-9.3414e-10
-9.32709e-10
-9.31219e-10
-9.29773e-10
-9.28304e-10
-9.26833e-10
-9.25377e-10
-9.23895e-10
-9.22428e-10
-9.20959e-10
-9.19474e-10
-9.17995e-10
-9.16483e-10
-9.14989e-10
-9.13513e-10
-9.11995e-10
-9.10504e-10
-9.08999e-10
-9.07504e-10
-9.05987e-10
-9.04455e-10
-9.0287e-10
-9.01345e-10
-8.99789e-10
-8.98264e-10
-8.96708e-10
-8.95158e-10
-8.93578e-10
-8.92049e-10
-8.90436e-10
-8.88876e-10
-8.87295e-10
-8.85722e-10
-8.84122e-10
-8.82547e-10
-8.80946e-10
-8.79326e-10
-8.77742e-10
-8.76151e-10
-8.74515e-10
-8.72889e-10
-8.71284e-10
-8.69644e-10
-8.67997e-10
-8.6639e-10
-8.64748e-10
-8.63091e-10
-8.61448e-10
-8.598e-10
-8.58137e-10
-8.56488e-10
-8.54817e-10
-8.53143e-10
-8.51436e-10
-8.49781e-10
-8.48095e-10
-8.46425e-10
-8.44716e-10
-8.43024e-10
-8.41337e-10
-8.39615e-10
-8.3789e-10
-8.36164e-10
-8.34464e-10
-8.32727e-10
-8.31001e-10
-8.29246e-10
-8.2751e-10
-8.25774e-10
-8.2403e-10
-8.22289e-10
-8.2052e-10
-8.18735e-10
-8.16953e-10
-8.152e-10
-8.13394e-10
-8.11627e-10
-8.098e-10
-8.08013e-10
-8.06202e-10
-8.04403e-10
-8.02582e-10
-8.00773e-10
-7.98942e-10
-7.97124e-10
-7.95285e-10
-7.9345e-10
-7.91612e-10
-7.8976e-10
-7.87889e-10
-7.86058e-10
-7.84181e-10
-7.82354e-10
-7.80453e-10
-7.78586e-10
-7.76663e-10
-7.74792e-10
-7.72893e-10
-7.70957e-10
-7.69029e-10
-7.67136e-10
-7.65197e-10
-7.63275e-10
-7.61345e-10
-7.59423e-10
-7.57475e-10
-7.55518e-10
-7.53553e-10
-7.51598e-10
-7.49643e-10
-7.47671e-10
-7.45692e-10
-7.43723e-10
-7.41748e-10
-7.39792e-10
-7.37758e-10
-7.35724e-10
-7.33758e-10
-7.31703e-10
-7.29696e-10
-7.27666e-10
-7.25639e-10
-7.23589e-10
-7.21522e-10
-7.19488e-10
-7.17439e-10
-7.15386e-10
-7.13336e-10
-7.11272e-10
-7.09187e-10
-7.07133e-10
-7.05039e-10
-7.0295e-10
-7.00884e-10
-6.98796e-10
-6.96723e-10
-6.94602e-10
-6.92468e-10
-6.90322e-10
-6.88192e-10
-6.8604e-10
-6.83922e-10
-6.81802e-10
-6.79661e-10
-6.77482e-10
-6.75283e-10
-6.73126e-10
-6.7096e-10
-6.68773e-10
-6.66603e-10
-6.64414e-10
-6.62196e-10
-6.60004e-10
-6.57794e-10
-6.55582e-10
-6.53361e-10
-6.51121e-10
-6.48908e-10
-6.46667e-10
-6.44381e-10
-6.4213e-10
-6.3988e-10
-6.37604e-10
-6.35362e-10
-6.33059e-10
-6.30801e-10
-6.28526e-10
-6.26224e-10
-6.23922e-10
-6.21622e-10
-6.19305e-10
-6.17016e-10
-6.1471e-10
-6.12396e-10
-6.10066e-10
-6.07728e-10
-6.05393e-10
-6.03076e-10
-6.00698e-10
-5.98322e-10
-5.95975e-10
-5.93567e-10
-5.91206e-10
-5.88821e-10
-5.8642e-10
-5.83995e-10
-5.81598e-10
-5.79169e-10
-5.7676e-10
-5.74308e-10
-5.71869e-10
-5.69415e-10
-5.66972e-10
-5.64568e-10
-5.62097e-10
-5.59672e-10
-5.5717e-10
-5.54708e-10
-5.52212e-10
-5.49713e-10
-5.4726e-10
-5.44731e-10
-5.42205e-10
-5.3971e-10
-5.3721e-10
-5.34661e-10
-5.32141e-10
-5.29625e-10
-5.2706e-10
-5.24509e-10
-5.21969e-10
-5.19417e-10
-5.16833e-10
-5.14271e-10
-5.11669e-10
-5.09079e-10
-5.06494e-10
-5.03941e-10
-5.01312e-10
-4.98714e-10
-4.96111e-10
-4.93461e-10
-4.90823e-10
-4.88217e-10
-4.85554e-10
-4.82922e-10
-4.80268e-10
-4.776e-10
-4.74903e-10
-4.72237e-10
-4.69513e-10
-4.6684e-10
-4.64126e-10
-4.61427e-10
-4.58742e-10
-4.56026e-10
-4.53306e-10
-4.50539e-10
-4.47812e-10
-4.45063e-10
-4.42347e-10
-4.39574e-10
-4.36815e-10
-4.34025e-10
-4.31269e-10
-4.28507e-10
-4.25672e-10
-4.22868e-10
-4.2008e-10
-4.1727e-10
-4.14448e-10
-4.11621e-10
-4.08792e-10
-4.05969e-10
-4.03115e-10
-4.0025e-10
-3.97425e-10
-3.94571e-10
-3.91704e-10
-3.88852e-10
-3.85925e-10
-3.83057e-10
-3.80169e-10
-3.77268e-10
-3.74355e-10
-3.71448e-10
-3.68519e-10
-3.65606e-10
-3.62672e-10
-3.59706e-10
-3.56766e-10
-3.53804e-10
-3.50821e-10
-3.47879e-10
-3.4488e-10
-3.41968e-10
-3.38928e-10
-3.35965e-10
-3.32953e-10
-3.29948e-10
-3.26966e-10
-3.23946e-10
-3.20931e-10
-3.17904e-10
-3.14892e-10
-3.11805e-10
-3.08804e-10
-3.05728e-10
-3.02677e-10
-2.99594e-10
-2.965e-10
-2.9343e-10
-2.90356e-10
-2.87242e-10
-2.84144e-10
-2.81016e-10
-2.77893e-10
-2.74758e-10
-2.71655e-10
-2.68504e-10
-2.65368e-10
-2.62238e-10
-2.59068e-10
-2.55904e-10
-2.52736e-10
-2.49556e-10
-2.46372e-10
-2.43186e-10
-2.40013e-10
-2.36819e-10
-2.33649e-10
-2.30448e-10
-2.27209e-10
-2.23983e-10
-2.20754e-10
-2.17494e-10
-2.14293e-10
-2.11062e-10
-2.07783e-10
-2.04536e-10
-2.01276e-10
-1.98012e-10
-1.94691e-10
-1.91403e-10
-1.88146e-10
-1.84822e-10
-1.81549e-10
-1.78218e-10
-1.74929e-10
-1.7159e-10
-1.68266e-10
-1.64911e-10
-1.61579e-10
-1.58243e-10
-1.54858e-10
-1.51524e-10
-1.48149e-10
-1.44762e-10
-1.41406e-10
-1.38029e-10
-1.34638e-10
-1.31234e-10
-1.27836e-10
-1.24425e-10
-1.21027e-10
-1.17624e-10
-1.14174e-10
-1.10755e-10
-1.07332e-10
-1.03859e-10
-1.00446e-10
-9.69745e-11
-9.35257e-11
-9.00898e-11
-8.66239e-11
-8.31539e-11
-7.96694e-11
-7.61909e-11
-7.26892e-11
-6.92101e-11
-6.57094e-11
-6.22043e-11
-5.86856e-11
-5.51716e-11
-5.16539e-11
-4.81215e-11
-4.45948e-11
-4.10632e-11
-3.75097e-11
-3.39964e-11
-3.04512e-11
-2.68578e-11
-2.32957e-11
-1.97373e-11
-1.61752e-11
-1.25814e-11
-8.96562e-12
-5.39017e-12
-1.77378e-12
1.80151e-12
5.39034e-12
9.01078e-12
1.25996e-11
1.62016e-11
1.98353e-11
2.34461e-11
2.70618e-11
3.06728e-11
3.43509e-11
3.80154e-11
4.16574e-11
4.5304e-11
4.89725e-11
5.26277e-11
5.63057e-11
5.99605e-11
6.36381e-11
6.73286e-11
7.09963e-11
7.47049e-11
7.84171e-11
8.2107e-11
8.58011e-11
8.95259e-11
9.32374e-11
9.68994e-11
1.00655e-10
1.04387e-10
1.08116e-10
1.11856e-10
1.15602e-10
1.19351e-10
1.23113e-10
1.26825e-10
1.30568e-10
1.34279e-10
1.38048e-10
1.41812e-10
1.45552e-10
1.49341e-10
1.53107e-10
1.56895e-10
1.60695e-10
1.64481e-10
1.68288e-10
1.72064e-10
1.7586e-10
1.79686e-10
1.83454e-10
1.87252e-10
1.91061e-10
1.94892e-10
1.98664e-10
2.02501e-10
2.0635e-10
2.10166e-10
2.13941e-10
2.17817e-10
2.21642e-10
2.25497e-10
2.29327e-10
2.33178e-10
2.37014e-10
2.40816e-10
2.44665e-10
2.48517e-10
2.52362e-10
2.56219e-10
2.60085e-10
2.63973e-10
2.67853e-10
2.71717e-10
2.75557e-10
2.79425e-10
2.83294e-10
2.87174e-10
2.91047e-10
2.9492e-10
2.98778e-10
3.0269e-10
3.06585e-10
3.105e-10
3.14353e-10
3.18286e-10
3.22203e-10
3.26049e-10
3.29949e-10
3.33831e-10
3.37723e-10
3.41616e-10
3.45543e-10
3.49426e-10
3.53328e-10
3.57237e-10
3.61129e-10
3.65011e-10
3.68928e-10
3.72845e-10
3.76761e-10
3.80675e-10
3.84616e-10
3.88502e-10
3.92431e-10
3.96341e-10
4.00259e-10
4.04174e-10
4.08061e-10
4.12009e-10
4.1591e-10
4.19818e-10
4.23705e-10
4.27626e-10
4.31571e-10
4.35487e-10
4.39399e-10
4.43318e-10
4.47224e-10
4.51145e-10
4.55071e-10
)
;

boundaryField
{
    bottom
    {
        type            fixedValue;
        value           uniform 0;
    }
    top
    {
        type            calculated;
        value           uniform 4.59004e-10;
    }
    walls
    {
        type            fixedValue;
        value           uniform 0;
    }
}


// ************************************************************************* //
