/*--------------------------------*- C++ -*----------------------------------*\
| =========                 |                                                 |
| \\      /  F ield         | foam-extend: Open Source CFD                    |
|  \\    /   O peration     | Version:     5.0                                |
|   \\  /    A nd           | Web:         http://www.foam-extend.org         |
|    \\/     M anipulation  |                                                 |
\*---------------------------------------------------------------------------*/
FoamFile
{
    version     2.0;
    format      ascii;
    class       surfaceScalarField;
    location    "20000";
    object      phi.water;
}
// * * * * * * * * * * * * * * * * * * * * * * * * * * * * * * * * * * * * * //

dimensions      [0 3 -1 0 0 0 0];

internalField   nonuniform List<scalar> 
1499
(
-1.33355e-13
4.87414e-15
1.30416e-13
-1.34581e-13
2.08708e-14
-1.14322e-13
1.77248e-13
-4.4523e-14
-1.14681e-13
-2.29709e-14
1.81874e-13
-1.38558e-13
1.4948e-13
-1.85185e-13
-9.41237e-14
3.55084e-14
-1.0028e-13
9.95352e-14
5.17804e-14
-1.45317e-13
-3.17812e-13
2.27058e-13
-1.72504e-13
4.93337e-14
-1.51503e-13
6.21579e-14
-1.83395e-13
-5.29641e-14
-3.58578e-13
1.38581e-13
-1.60284e-13
-1.05984e-13
-4.18069e-13
4.59776e-14
-7.85371e-14
5.7975e-14
-4.3611e-13
-1.0217e-13
-1.35447e-13
-1.62609e-14
-3.2322e-13
-5.25995e-14
-5.67939e-13
-1.75333e-13
-7.10516e-14
-4.38453e-13
1.00383e-13
-1.9562e-13
-4.12834e-13
-3.48624e-13
-4.11516e-13
-1.63186e-13
-2.63711e-13
-5.665e-13
-1.00266e-14
-5.84852e-13
-3.15745e-14
-6.55681e-13
-1.35559e-13
-5.27072e-13
-4.47938e-13
-6.35604e-13
-3.23048e-13
-4.05616e-13
-5.9784e-13
-5.22751e-13
-2.16313e-13
-4.91829e-13
-5.77564e-13
-5.85736e-13
-4.69681e-13
-6.37152e-13
-6.46833e-13
-6.89295e-13
-5.44e-13
-5.58084e-13
-6.03984e-13
-8.52459e-13
-6.31022e-13
-6.78705e-13
-7.72413e-13
-7.88477e-13
-7.58084e-13
-5.42314e-13
-7.96956e-13
-1.00355e-12
-5.52735e-13
-1.04345e-12
-7.81348e-13
-8.03064e-13
-8.25512e-13
-1.19181e-12
-8.20671e-13
-7.67294e-13
-1.13609e-12
-1.15797e-12
-1.02414e-12
-8.46053e-13
-1.10773e-12
-9.75791e-13
-8.79448e-13
-1.37621e-12
-1.08775e-12
-1.30355e-12
-1.09521e-12
-1.27976e-12
-1.02763e-12
-1.37045e-12
-1.31977e-12
-1.3018e-12
-1.25448e-12
-1.12846e-12
-1.5837e-12
-1.30006e-12
-1.48829e-12
-1.47277e-12
-1.65947e-12
-1.22182e-12
-1.75691e-12
-1.24108e-12
-1.74555e-12
-1.26247e-12
-1.84694e-12
-1.79942e-12
-1.31792e-12
-1.98111e-12
-1.62114e-12
-1.61359e-12
-2.03926e-12
-1.44876e-12
-2.22249e-12
-1.94218e-12
-1.58727e-12
-2.05099e-12
-1.92892e-12
-1.81172e-12
-2.11732e-12
-2.15382e-12
-1.87789e-12
-2.26305e-12
-1.90973e-12
-2.02959e-12
-2.33638e-12
-2.29601e-12
-2.02362e-12
-2.33143e-12
-2.52727e-12
-2.01974e-12
-2.40804e-12
-2.63693e-12
-2.23426e-12
-2.27066e-12
-2.68549e-12
-2.31592e-12
-2.5105e-12
-2.53394e-12
-2.79212e-12
-2.59233e-12
-2.6179e-12
-2.56323e-12
-2.83845e-12
-2.78293e-12
-2.65239e-12
-3.00352e-12
-2.87273e-12
-2.58603e-12
-3.33089e-12
-2.88516e-12
-2.83412e-12
-3.26686e-12
-2.90073e-12
-3.16442e-12
-3.04775e-12
-3.46822e-12
-3.25761e-12
-3.14301e-12
-3.40673e-12
-3.19938e-12
-3.0889e-12
-3.58874e-12
-3.381e-12
-3.73865e-12
-3.37471e-12
-3.48405e-12
-3.37291e-12
-3.95438e-12
-3.58937e-12
-3.6361e-12
-3.7456e-12
-3.85515e-12
-3.66706e-12
-3.93414e-12
-3.96428e-12
-4.0126e-12
-3.80883e-12
-4.23348e-12
-3.88986e-12
-4.31489e-12
-4.1099e-12
-4.16134e-12
-4.11623e-12
-4.38422e-12
-4.35618e-12
-4.23402e-12
-4.42444e-12
-4.55381e-12
-4.27374e-12
-4.70165e-12
-4.28513e-12
-4.86775e-12
-4.66635e-12
-4.71987e-12
-4.75425e-12
-4.71203e-12
-5.07952e-12
-4.87678e-12
-4.6798e-12
-4.97082e-12
-5.00773e-12
-5.04527e-12
-5.10115e-12
-5.13845e-12
-5.33136e-12
-5.07453e-12
-5.27093e-12
-5.61899e-12
-5.20712e-12
-5.2465e-12
-5.6757e-12
-5.57741e-12
-5.53615e-12
-5.65418e-12
-5.4002e-12
-5.67731e-12
-5.63997e-12
-6.01244e-12
-5.89623e-12
-5.62149e-12
-6.17122e-12
-6.20438e-12
-5.94052e-12
-5.94074e-12
-4.55144e-12
1.30919e-11
3.05986e-11
4.84015e-11
6.61109e-11
8.39705e-11
1.022e-10
1.19857e-10
1.38406e-10
1.57024e-10
1.75245e-10
1.94305e-10
2.12038e-10
2.31781e-10
2.50215e-10
2.68729e-10
2.89178e-10
3.07645e-10
3.27269e-10
3.46417e-10
3.6623e-10
3.86016e-10
4.05205e-10
4.26597e-10
4.45548e-10
4.65849e-10
4.85706e-10
5.0666e-10
5.27591e-10
5.48147e-10
5.68329e-10
5.89787e-10
6.09946e-10
6.32032e-10
6.52013e-10
6.74159e-10
6.95318e-10
7.16495e-10
7.39849e-10
7.58623e-10
7.82919e-10
8.03109e-10
8.25312e-10
8.50038e-10
8.69434e-10
8.94523e-10
9.15447e-10
9.379e-10
9.60203e-10
9.84448e-10
1.00805e-09
1.02954e-09
1.05236e-09
1.07461e-09
1.09991e-09
1.12368e-09
1.14747e-09
1.16961e-09
1.19647e-09
1.21769e-09
1.24496e-09
1.26525e-09
1.29423e-09
1.3127e-09
1.34058e-09
1.36382e-09
1.38932e-09
1.41682e-09
1.43853e-09
1.46543e-09
1.48825e-09
1.51559e-09
1.54055e-09
1.56415e-09
1.59651e-09
1.61341e-09
1.64547e-09
1.67072e-09
1.6965e-09
1.71835e-09
1.74896e-09
1.77612e-09
1.79976e-09
1.82754e-09
1.85604e-09
1.87817e-09
1.91047e-09
1.93492e-09
1.96229e-09
1.98797e-09
2.01757e-09
2.04698e-09
2.07251e-09
2.10042e-09
2.12566e-09
2.15837e-09
2.18453e-09
2.21282e-09
2.24033e-09
2.26921e-09
2.29688e-09
2.32688e-09
2.35505e-09
2.38631e-09
2.40862e-09
2.44417e-09
2.47135e-09
2.49809e-09
2.53233e-09
2.55974e-09
2.58714e-09
2.62123e-09
2.64786e-09
2.67584e-09
2.71353e-09
2.73617e-09
2.77144e-09
2.7961e-09
2.83121e-09
2.85518e-09
2.89507e-09
2.92408e-09
2.9527e-09
2.98236e-09
3.01431e-09
3.04439e-09
3.08312e-09
3.10863e-09
3.14081e-09
3.17333e-09
3.20067e-09
3.23861e-09
3.27015e-09
3.29477e-09
3.33484e-09
3.36513e-09
3.39662e-09
3.43745e-09
3.45589e-09
3.49871e-09
3.52692e-09
3.56182e-09
3.5892e-09
3.62998e-09
3.66078e-09
3.6959e-09
3.72652e-09
3.76143e-09
3.79848e-09
3.82781e-09
3.86253e-09
3.89431e-09
3.93311e-09
3.96738e-09
3.99447e-09
4.03727e-09
4.07042e-09
4.10332e-09
4.13833e-09
4.17542e-09
4.20885e-09
4.23913e-09
4.28077e-09
4.31375e-09
4.3493e-09
4.38202e-09
4.42049e-09
4.4561e-09
4.49432e-09
4.5236e-09
4.5664e-09
4.59923e-09
4.63878e-09
4.6762e-09
4.70709e-09
4.74732e-09
4.78156e-09
4.81924e-09
4.85518e-09
4.89714e-09
4.93096e-09
4.96489e-09
5.00113e-09
5.04655e-09
5.07894e-09
5.11879e-09
5.15476e-09
5.19412e-09
5.2347e-09
5.26537e-09
5.30899e-09
5.34433e-09
5.38651e-09
5.42074e-09
5.46162e-09
5.49762e-09
5.54031e-09
5.57866e-09
5.61737e-09
5.65127e-09
5.69304e-09
5.73834e-09
5.77615e-09
5.80777e-09
5.8562e-09
5.88832e-09
5.93313e-09
5.97047e-09
6.01443e-09
6.04544e-09
6.09716e-09
6.13041e-09
6.17172e-09
6.21352e-09
6.25452e-09
6.29518e-09
6.33285e-09
6.37698e-09
6.42042e-09
6.45731e-09
6.50054e-09
6.53641e-09
6.58296e-09
6.62545e-09
6.66625e-09
6.70579e-09
6.74866e-09
6.79709e-09
6.82818e-09
6.87558e-09
6.91761e-09
6.96055e-09
7.00132e-09
7.04205e-09
7.08982e-09
7.12838e-09
7.16912e-09
7.21919e-09
7.25593e-09
7.30441e-09
7.34229e-09
7.39096e-09
7.42976e-09
7.47474e-09
7.5188e-09
7.56205e-09
7.60901e-09
7.64881e-09
7.69462e-09
7.735e-09
7.77893e-09
7.8296e-09
7.86919e-09
7.91571e-09
7.96212e-09
8.00451e-09
8.04643e-09
8.09741e-09
8.13745e-09
8.18015e-09
8.23143e-09
8.27464e-09
8.31944e-09
8.36692e-09
8.40564e-09
8.45941e-09
8.50217e-09
8.54527e-09
8.59769e-09
8.63868e-09
8.6889e-09
8.72574e-09
8.78069e-09
8.82284e-09
8.87174e-09
8.91939e-09
8.96416e-09
9.00815e-09
9.05593e-09
9.10535e-09
9.15369e-09
9.20036e-09
9.24644e-09
9.28911e-09
9.34143e-09
9.39061e-09
9.43479e-09
9.48233e-09
9.53449e-09
9.5783e-09
9.62221e-09
9.68095e-09
9.71915e-09
9.77285e-09
9.81629e-09
9.86937e-09
9.91465e-09
9.96936e-09
1.00113e-08
1.00641e-08
1.01132e-08
1.01579e-08
1.02073e-08
1.02611e-08
1.03067e-08
1.03581e-08
1.04064e-08
1.04572e-08
1.05051e-08
1.05542e-08
1.06061e-08
1.06487e-08
1.0709e-08
1.07526e-08
1.08064e-08
1.08575e-08
1.09042e-08
1.09527e-08
1.10062e-08
1.10613e-08
1.11042e-08
1.11565e-08
1.12069e-08
1.12641e-08
1.1307e-08
1.13614e-08
1.14143e-08
1.14632e-08
1.15173e-08
1.15649e-08
1.16175e-08
1.16686e-08
1.17201e-08
1.17738e-08
1.18231e-08
1.18781e-08
1.19294e-08
1.19809e-08
1.20333e-08
1.20832e-08
1.21403e-08
1.21918e-08
1.22393e-08
1.2292e-08
1.23473e-08
1.24007e-08
1.24521e-08
1.25062e-08
1.2559e-08
1.26122e-08
1.26675e-08
1.27151e-08
1.27709e-08
1.2826e-08
1.28757e-08
1.29353e-08
1.29834e-08
1.30405e-08
1.30894e-08
1.31522e-08
1.31945e-08
1.32601e-08
1.33026e-08
1.33654e-08
1.34187e-08
1.34687e-08
1.35285e-08
1.35831e-08
1.3636e-08
1.36849e-08
1.37434e-08
1.38026e-08
1.38548e-08
1.39069e-08
1.39646e-08
1.40168e-08
1.40758e-08
1.41263e-08
1.41872e-08
1.42364e-08
1.42976e-08
1.43537e-08
1.4409e-08
1.44628e-08
1.45149e-08
1.45717e-08
1.46344e-08
1.46831e-08
1.47402e-08
1.47983e-08
1.48555e-08
1.49102e-08
1.49689e-08
1.50205e-08
1.5081e-08
1.5139e-08
1.51899e-08
1.52483e-08
1.53092e-08
1.53625e-08
1.54217e-08
1.54751e-08
1.55353e-08
1.55925e-08
1.56458e-08
1.57067e-08
1.57627e-08
1.58226e-08
1.58778e-08
1.59326e-08
1.59923e-08
1.60519e-08
1.61112e-08
1.61651e-08
1.62231e-08
1.62833e-08
1.63413e-08
1.63971e-08
1.64536e-08
1.65182e-08
1.65714e-08
1.66321e-08
1.66892e-08
1.67452e-08
1.68089e-08
1.68621e-08
1.6924e-08
1.69837e-08
1.70391e-08
1.71006e-08
1.71609e-08
1.72152e-08
1.72763e-08
1.73344e-08
1.73995e-08
1.74502e-08
1.75149e-08
1.75732e-08
1.763e-08
1.76915e-08
1.77507e-08
1.78123e-08
1.78657e-08
1.79305e-08
1.79918e-08
1.80497e-08
1.81049e-08
1.81713e-08
1.82285e-08
1.82894e-08
1.8349e-08
1.8405e-08
1.84728e-08
1.85274e-08
1.85909e-08
1.86493e-08
1.871e-08
1.87677e-08
1.88321e-08
1.88929e-08
1.89509e-08
1.90125e-08
1.90758e-08
1.91326e-08
1.91973e-08
1.92558e-08
1.93121e-08
1.93793e-08
1.9438e-08
1.95002e-08
1.95602e-08
1.96243e-08
1.96831e-08
1.97425e-08
1.98046e-08
1.98698e-08
1.99272e-08
1.99886e-08
2.00495e-08
2.01119e-08
2.0176e-08
2.02365e-08
2.02946e-08
2.03597e-08
2.042e-08
2.04815e-08
2.05464e-08
2.06055e-08
2.06694e-08
2.07263e-08
2.07946e-08
2.08549e-08
2.09143e-08
2.09778e-08
2.10383e-08
2.11048e-08
2.11643e-08
2.1227e-08
2.12844e-08
2.13546e-08
2.14128e-08
2.14749e-08
2.15383e-08
2.16001e-08
2.16645e-08
2.17247e-08
2.17909e-08
2.18468e-08
2.19174e-08
2.19743e-08
2.20393e-08
2.21013e-08
2.21631e-08
2.22303e-08
2.2286e-08
2.23542e-08
2.24156e-08
2.24777e-08
2.25411e-08
2.2604e-08
2.26687e-08
2.27274e-08
2.27938e-08
2.28581e-08
2.29185e-08
2.2981e-08
2.30459e-08
2.31095e-08
2.31728e-08
2.32335e-08
2.32998e-08
2.33625e-08
2.34234e-08
2.34879e-08
2.35516e-08
2.36135e-08
2.36806e-08
2.37396e-08
2.38064e-08
2.38685e-08
2.39295e-08
2.39964e-08
2.40558e-08
2.41228e-08
2.41844e-08
2.42518e-08
2.43067e-08
2.43769e-08
2.44412e-08
2.45026e-08
2.45675e-08
2.46276e-08
2.46942e-08
2.47551e-08
2.48214e-08
2.48837e-08
2.49477e-08
2.50126e-08
2.50743e-08
2.5139e-08
2.52007e-08
2.52643e-08
2.53302e-08
2.5394e-08
2.5456e-08
2.55194e-08
2.55845e-08
2.56467e-08
2.5712e-08
2.57738e-08
2.58381e-08
2.59003e-08
2.59692e-08
2.60276e-08
2.60925e-08
2.61556e-08
2.62179e-08
2.62864e-08
2.63471e-08
2.64107e-08
2.64703e-08
2.65398e-08
2.66007e-08
2.66651e-08
2.67297e-08
2.67901e-08
2.68533e-08
2.69207e-08
2.69824e-08
2.70442e-08
2.71103e-08
2.7172e-08
2.7235e-08
2.73011e-08
2.73606e-08
2.74292e-08
2.74856e-08
2.75534e-08
2.7617e-08
2.76756e-08
2.77452e-08
2.78047e-08
2.78688e-08
2.79313e-08
2.79956e-08
2.80576e-08
2.81214e-08
2.81849e-08
2.82472e-08
2.83101e-08
2.83721e-08
2.8435e-08
2.84988e-08
2.85611e-08
2.86257e-08
2.86879e-08
2.87509e-08
2.88111e-08
2.88752e-08
2.89379e-08
2.90017e-08
2.90616e-08
2.91251e-08
2.91872e-08
2.92511e-08
2.9314e-08
2.93731e-08
2.94385e-08
2.94992e-08
2.95591e-08
2.9625e-08
2.96865e-08
2.97457e-08
2.98118e-08
2.9872e-08
2.99322e-08
2.99943e-08
3.00576e-08
3.01195e-08
3.01813e-08
3.0242e-08
3.03018e-08
3.03648e-08
3.04269e-08
3.04839e-08
3.05506e-08
3.06108e-08
3.06705e-08
3.07317e-08
3.07929e-08
3.0852e-08
3.09163e-08
3.09749e-08
3.10345e-08
3.10947e-08
3.11599e-08
3.12153e-08
3.12772e-08
3.13392e-08
3.13984e-08
3.14573e-08
3.15182e-08
3.15787e-08
3.16375e-08
3.16979e-08
3.1757e-08
3.18162e-08
3.18764e-08
3.1936e-08
3.19956e-08
3.20528e-08
3.21156e-08
3.21705e-08
3.22309e-08
3.22909e-08
3.23518e-08
3.24055e-08
3.24666e-08
3.25208e-08
3.25828e-08
3.26393e-08
3.26992e-08
3.27564e-08
3.28168e-08
3.28697e-08
3.29287e-08
3.29891e-08
3.30427e-08
3.31026e-08
3.316e-08
3.32141e-08
3.32741e-08
3.33295e-08
3.33872e-08
3.34419e-08
3.34973e-08
3.35561e-08
3.36079e-08
3.367e-08
3.37228e-08
3.37819e-08
3.38332e-08
3.38875e-08
3.39474e-08
3.3999e-08
3.40559e-08
3.41063e-08
3.41652e-08
3.42202e-08
3.42765e-08
3.43266e-08
3.43816e-08
3.44316e-08
3.44928e-08
3.45416e-08
3.45985e-08
3.46471e-08
3.47041e-08
3.47554e-08
3.48069e-08
3.48622e-08
3.49136e-08
3.49683e-08
3.50115e-08
3.50727e-08
3.51198e-08
3.51735e-08
3.52256e-08
3.52722e-08
3.53267e-08
3.53768e-08
3.54275e-08
3.54764e-08
3.55296e-08
3.55763e-08
3.56299e-08
3.56779e-08
3.57263e-08
3.5773e-08
3.58231e-08
3.58769e-08
3.59211e-08
3.59718e-08
3.60164e-08
3.60689e-08
3.61119e-08
3.61603e-08
3.62104e-08
3.62541e-08
3.63017e-08
3.63531e-08
3.63929e-08
3.64404e-08
3.64874e-08
3.65332e-08
3.6581e-08
3.662e-08
3.66694e-08
3.67113e-08
3.6753e-08
3.68027e-08
3.68452e-08
3.68894e-08
3.69317e-08
3.69743e-08
3.70173e-08
3.70599e-08
3.71024e-08
3.71441e-08
3.71852e-08
3.7228e-08
3.72713e-08
3.73075e-08
3.73512e-08
3.73895e-08
3.74301e-08
3.74719e-08
3.75066e-08
3.75464e-08
3.75882e-08
3.7626e-08
3.76654e-08
3.77016e-08
3.77389e-08
3.77763e-08
3.78153e-08
3.78486e-08
3.78878e-08
3.7924e-08
3.79581e-08
3.79931e-08
3.80303e-08
3.80626e-08
3.80954e-08
3.8134e-08
3.81657e-08
3.81963e-08
3.82312e-08
3.82657e-08
3.82943e-08
3.83277e-08
3.83621e-08
3.83901e-08
3.84209e-08
3.84528e-08
3.84826e-08
3.85106e-08
3.85428e-08
3.85678e-08
3.85965e-08
3.86249e-08
3.86571e-08
3.86811e-08
3.87096e-08
3.87323e-08
3.8762e-08
3.87859e-08
3.88099e-08
3.88367e-08
3.88611e-08
3.88878e-08
3.89073e-08
3.89303e-08
3.89539e-08
3.8978e-08
3.89978e-08
3.9019e-08
3.90421e-08
3.90608e-08
3.90799e-08
3.90994e-08
3.91222e-08
3.91383e-08
3.91573e-08
3.91719e-08
3.91928e-08
3.92091e-08
3.92257e-08
3.92371e-08
3.92575e-08
3.92692e-08
3.92858e-08
3.92964e-08
3.93122e-08
3.93249e-08
3.93352e-08
3.93473e-08
3.93616e-08
3.93704e-08
3.93811e-08
3.93882e-08
3.93984e-08
3.94054e-08
3.94189e-08
3.94217e-08
3.94274e-08
3.94354e-08
3.94439e-08
3.94451e-08
3.94531e-08
3.94545e-08
3.94579e-08
3.9462e-08
3.94629e-08
3.94661e-08
3.94656e-08
3.94669e-08
3.94655e-08
3.94668e-08
3.94646e-08
3.94642e-08
3.94603e-08
3.94526e-08
3.94519e-08
3.94513e-08
3.944e-08
3.94375e-08
3.94316e-08
3.94237e-08
3.94148e-08
3.94069e-08
3.93975e-08
3.93882e-08
3.93769e-08
3.93685e-08
3.93531e-08
3.93405e-08
3.93303e-08
3.93132e-08
3.92986e-08
3.92865e-08
3.92688e-08
3.92522e-08
3.92302e-08
3.92154e-08
3.91951e-08
3.91773e-08
3.91538e-08
3.91373e-08
3.91116e-08
3.90897e-08
3.90627e-08
3.90413e-08
3.9018e-08
3.89903e-08
3.89627e-08
3.89374e-08
3.89054e-08
3.88786e-08
3.88473e-08
3.88175e-08
3.87853e-08
3.87527e-08
3.87178e-08
3.86866e-08
3.86505e-08
3.86134e-08
3.8578e-08
3.85416e-08
3.85e-08
3.84647e-08
3.84197e-08
3.83829e-08
3.83386e-08
3.82943e-08
3.82517e-08
3.82081e-08
3.8161e-08
3.81166e-08
3.80676e-08
3.80193e-08
3.79696e-08
3.79184e-08
3.78706e-08
3.78165e-08
3.77612e-08
3.77078e-08
3.76552e-08
3.7596e-08
3.75403e-08
3.7484e-08
3.74219e-08
3.73629e-08
3.73033e-08
3.72388e-08
3.7178e-08
3.71108e-08
3.70479e-08
3.69808e-08
3.69155e-08
3.68482e-08
3.67744e-08
3.6708e-08
3.66326e-08
3.65622e-08
3.64884e-08
3.64119e-08
3.63411e-08
3.62567e-08
3.61828e-08
3.61055e-08
3.60248e-08
3.59382e-08
3.58608e-08
3.57749e-08
3.56891e-08
3.56059e-08
3.55191e-08
3.54293e-08
3.5338e-08
3.52499e-08
3.51566e-08
3.50651e-08
3.49711e-08
3.48774e-08
3.47751e-08
3.46812e-08
3.45831e-08
3.44781e-08
3.43808e-08
3.42793e-08
3.41703e-08
3.40691e-08
3.39613e-08
3.38529e-08
3.3744e-08
3.36363e-08
3.35211e-08
3.34116e-08
3.32962e-08
3.31816e-08
3.30646e-08
3.2946e-08
3.28259e-08
3.27043e-08
3.2586e-08
3.24604e-08
3.23392e-08
3.22087e-08
3.20819e-08
3.19538e-08
3.18257e-08
3.16948e-08
3.15565e-08
3.14274e-08
3.12907e-08
3.11552e-08
3.10136e-08
3.08755e-08
3.07338e-08
3.05934e-08
3.04467e-08
3.0302e-08
3.01577e-08
3.00073e-08
2.98568e-08
2.97088e-08
2.95511e-08
2.94013e-08
2.92457e-08
2.90883e-08
2.89297e-08
2.87684e-08
2.86083e-08
2.84468e-08
2.82803e-08
2.81142e-08
2.79482e-08
2.77804e-08
2.76075e-08
2.74384e-08
2.72627e-08
2.70917e-08
2.6908e-08
2.67374e-08
2.65528e-08
2.63748e-08
2.61927e-08
2.6006e-08
2.58224e-08
2.5634e-08
2.54461e-08
2.52533e-08
2.50665e-08
2.4868e-08
2.46751e-08
2.44771e-08
2.42801e-08
2.40816e-08
2.38789e-08
2.36745e-08
2.34717e-08
2.32642e-08
2.30576e-08
2.28486e-08
2.2638e-08
2.24241e-08
2.22112e-08
2.19948e-08
2.17761e-08
2.15577e-08
2.1338e-08
2.11147e-08
2.08915e-08
2.06669e-08
2.0439e-08
2.02092e-08
1.99811e-08
1.9747e-08
1.95109e-08
1.92801e-08
1.90419e-08
1.8802e-08
1.85659e-08
1.83204e-08
1.80754e-08
1.78319e-08
1.75876e-08
1.73375e-08
1.70839e-08
1.68357e-08
1.65839e-08
1.63252e-08
1.60729e-08
1.58102e-08
1.55533e-08
1.52899e-08
1.50289e-08
1.47608e-08
1.44981e-08
1.4227e-08
1.39593e-08
1.36877e-08
1.34134e-08
1.31391e-08
1.28656e-08
1.25853e-08
1.23048e-08
1.20254e-08
1.17418e-08
1.14583e-08
1.11734e-08
1.08855e-08
1.05941e-08
1.03058e-08
1.00128e-08
9.71796e-09
9.42429e-09
9.12567e-09
8.82799e-09
8.52857e-09
8.22477e-09
7.9214e-09
7.61739e-09
7.31238e-09
7.00115e-09
6.69463e-09
6.3817e-09
6.06881e-09
5.75466e-09
5.43969e-09
5.12305e-09
4.80401e-09
4.48328e-09
4.16202e-09
3.8361e-09
3.51646e-09
3.18814e-09
2.85733e-09
2.53081e-09
2.2017e-09
1.86818e-09
1.53372e-09
1.19958e-09
8.64195e-10
5.25459e-10
1.8731e-10
-1.52947e-10
-4.9598e-10
-8.38423e-10
-1.1831e-09
-1.53068e-09
-1.87511e-09
-2.22539e-09
-2.57599e-09
-2.9292e-09
-3.27938e-09
-3.63123e-09
-3.98918e-09
-4.3459e-09
-4.70247e-09
-5.06179e-09
-5.42052e-09
-5.78356e-09
-6.14748e-09
-6.50847e-09
-6.87691e-09
-7.24117e-09
-7.60799e-09
-7.9776e-09
-8.34707e-09
-8.71699e-09
-9.08896e-09
-9.46626e-09
-9.8365e-09
-1.02119e-08
-1.05901e-08
-1.09667e-08
-1.13435e-08
-1.17251e-08
-1.21032e-08
-1.2486e-08
-1.28671e-08
-1.32523e-08
-1.36377e-08
-1.40198e-08
-1.44093e-08
-1.4794e-08
-1.51828e-08
-1.55719e-08
-1.59608e-08
-1.63524e-08
-1.67421e-08
-1.71352e-08
-1.75305e-08
-1.79191e-08
-1.83176e-08
-1.87127e-08
-1.91077e-08
-1.95035e-08
-1.99034e-08
-2.03014e-08
-2.06973e-08
-2.10965e-08
-2.15014e-08
-2.18979e-08
-2.23011e-08
-2.27021e-08
-2.31042e-08
-2.35066e-08
-2.39102e-08
-2.43155e-08
-2.47191e-08
-2.51247e-08
-2.55304e-08
-2.59357e-08
-2.63432e-08
-2.67484e-08
-2.71538e-08
-2.75614e-08
-2.79714e-08
-2.83782e-08
-2.87876e-08
-2.91956e-08
-2.96044e-08
-3.00127e-08
-3.04249e-08
-3.08335e-08
-3.12439e-08
-3.16502e-08
-3.20653e-08
-3.24732e-08
-3.28821e-08
-3.32947e-08
-3.37048e-08
-3.41166e-08
-3.45257e-08
-3.49393e-08
-3.53473e-08
-3.57593e-08
-3.61712e-08
-3.65801e-08
-3.69907e-08
-3.74029e-08
-3.7813e-08
-3.82241e-08
-3.8634e-08
-3.90433e-08
-3.94524e-08
-3.98654e-08
-4.02726e-08
-4.06829e-08
-4.10918e-08
-4.15001e-08
-4.19102e-08
-4.2318e-08
-4.27256e-08
-4.31325e-08
-4.35411e-08
-4.3949e-08
-4.4354e-08
-4.47602e-08
-4.51668e-08
-4.55717e-08
-4.59781e-08
-4.63815e-08
-4.6786e-08
)
;

boundaryField
{
    bottom
    {
        type            fixedValue;
        value           uniform 0;
    }
    top
    {
        type            calculated;
        value           uniform -4.71887e-08;
    }
    walls
    {
        type            fixedValue;
        value           uniform 0;
    }
}


// ************************************************************************* //
