/*--------------------------------*- C++ -*----------------------------------*\
| =========                 |                                                 |
| \\      /  F ield         | foam-extend: Open Source CFD                    |
|  \\    /   O peration     | Version:     5.0                                |
|   \\  /    A nd           | Web:         http://www.foam-extend.org         |
|    \\/     M anipulation  |                                                 |
\*---------------------------------------------------------------------------*/
FoamFile
{
    version     2.0;
    format      ascii;
    class       volScalarField;
    location    "20000";
    object      S.gas;
}
// * * * * * * * * * * * * * * * * * * * * * * * * * * * * * * * * * * * * * //

dimensions      [0 0 0 0 0 0 0];

internalField   nonuniform List<scalar> 
1500
(
2.68149e-06
2.94032e-06
3.21212e-06
3.4859e-06
3.77018e-06
4.08953e-06
4.51031e-06
5.26466e-06
6.17757e-06
6.95002e-06
7.65717e-06
8.33071e-06
8.98515e-06
9.62789e-06
1.0263e-05
1.0893e-05
1.15193e-05
1.21429e-05
1.27645e-05
1.33844e-05
1.40031e-05
1.46208e-05
1.52375e-05
1.58535e-05
1.64689e-05
1.70837e-05
1.7698e-05
1.83119e-05
1.89253e-05
1.95384e-05
2.01512e-05
2.07636e-05
2.13758e-05
2.19877e-05
2.25993e-05
2.32107e-05
2.38219e-05
2.44329e-05
2.50437e-05
2.56543e-05
2.62647e-05
2.68749e-05
2.7485e-05
2.8095e-05
2.87048e-05
2.93144e-05
2.9924e-05
3.05334e-05
3.11426e-05
3.17518e-05
3.23609e-05
3.29698e-05
3.35786e-05
3.41874e-05
3.4796e-05
3.54046e-05
3.6013e-05
3.66214e-05
3.72297e-05
3.78379e-05
3.8446e-05
3.90541e-05
3.9662e-05
4.027e-05
4.08778e-05
4.14856e-05
4.20933e-05
4.27009e-05
4.33085e-05
4.3916e-05
4.45235e-05
4.51309e-05
4.57382e-05
4.63455e-05
4.69528e-05
4.756e-05
4.81671e-05
4.87742e-05
4.93812e-05
4.99882e-05
5.05952e-05
5.12021e-05
5.1809e-05
5.24158e-05
5.30226e-05
5.36293e-05
5.42361e-05
5.48427e-05
5.54494e-05
5.6056e-05
5.66625e-05
5.72691e-05
5.78755e-05
5.8482e-05
5.90884e-05
5.96948e-05
6.03012e-05
6.09075e-05
6.15138e-05
6.21201e-05
6.27264e-05
6.33326e-05
6.39388e-05
6.45449e-05
6.51511e-05
6.57572e-05
6.63633e-05
6.69693e-05
6.75753e-05
6.81814e-05
6.87873e-05
6.93933e-05
6.99992e-05
7.06052e-05
7.12111e-05
7.18169e-05
7.24228e-05
7.30286e-05
7.36344e-05
7.42402e-05
7.4846e-05
7.54517e-05
7.60574e-05
7.66632e-05
7.72688e-05
7.78745e-05
7.84802e-05
7.90858e-05
7.96914e-05
8.0297e-05
8.09026e-05
8.15082e-05
8.21137e-05
8.27193e-05
8.33248e-05
8.39303e-05
8.45358e-05
8.51412e-05
8.57467e-05
8.63521e-05
8.69575e-05
8.75629e-05
8.81683e-05
8.87737e-05
8.93791e-05
8.99844e-05
9.05898e-05
9.11951e-05
9.18004e-05
9.24057e-05
9.3011e-05
9.36163e-05
9.42215e-05
9.48268e-05
9.5432e-05
9.60372e-05
9.66425e-05
9.72477e-05
9.78528e-05
9.8458e-05
9.90632e-05
9.96683e-05
0.000100273
0.000100879
0.000101484
0.000102089
0.000102694
0.000103299
0.000103904
0.000104509
0.000105114
0.000105719
0.000106324
0.000106929
0.000107534
0.000108139
0.000108744
0.000109349
0.000109954
0.000110559
0.000111164
0.000111769
0.000112374
0.000112979
0.000113584
0.000114189
0.000114794
0.000115399
0.000116004
0.000116609
0.000117213
0.000117818
0.000118423
0.000119028
0.000119633
0.000120238
0.000120843
0.000121447
0.000122052
0.000122657
0.000123262
0.000123867
0.000124471
0.000125076
0.000125681
0.000126286
0.00012689
0.000127495
0.0001281
0.000128705
0.000129309
0.000129914
0.000130519
0.000131124
0.000131728
0.000132333
0.000132938
0.000133542
0.000134147
0.000134752
0.000135356
0.000135961
0.000136566
0.00013717
0.000137775
0.00013838
0.000138984
0.000139589
0.000140194
0.000140798
0.000141403
0.000142007
0.000142612
0.000143217
0.000143821
0.000144426
0.00014503
0.000145635
0.000146239
0.000146844
0.000147456
0.000149518
0.000422856
0.0123639
0.0252351
0.0378537
0.0502271
0.0623621
0.0742649
0.0859414
0.0973975
0.108639
0.11967
0.130497
0.141125
0.151559
0.161802
0.171861
0.181739
0.191441
0.20097
0.210331
0.219529
0.228566
0.237446
0.246173
0.254751
0.263183
0.271472
0.279621
0.287634
0.295514
0.303263
0.310885
0.318381
0.325756
0.333011
0.34015
0.347174
0.354086
0.360889
0.367585
0.374175
0.380663
0.38705
0.393339
0.399531
0.405628
0.411633
0.417547
0.423372
0.42911
0.434762
0.440331
0.445818
0.451224
0.456551
0.461801
0.466975
0.472074
0.477101
0.482056
0.486941
0.491756
0.496504
0.501186
0.505803
0.510355
0.514845
0.519274
0.523642
0.52795
0.5322
0.536393
0.54053
0.544612
0.548639
0.552613
0.556535
0.560405
0.564225
0.567995
0.571716
0.57539
0.579016
0.582596
0.58613
0.58962
0.593066
0.596468
0.599828
0.603146
0.606423
0.609659
0.612856
0.616013
0.619132
0.622214
0.625257
0.628265
0.631236
0.634171
0.637072
0.639938
0.642771
0.64557
0.648337
0.651071
0.653773
0.656444
0.659084
0.661694
0.664274
0.666825
0.669347
0.67184
0.674305
0.676743
0.679153
0.681536
0.683893
0.686224
0.688529
0.690809
0.693064
0.695295
0.697501
0.699683
0.701842
0.703978
0.706091
0.708181
0.710249
0.712295
0.71432
0.716323
0.718306
0.720268
0.722209
0.72413
0.726032
0.727913
0.729776
0.73162
0.733444
0.735251
0.737039
0.738809
0.740561
0.742296
0.744013
0.745713
0.747397
0.749064
0.750714
0.752348
0.753967
0.755569
0.757156
0.758728
0.760284
0.761826
0.763353
0.764865
0.766362
0.767846
0.769315
0.770771
0.772213
0.773641
0.775057
0.776458
0.777847
0.779223
0.780587
0.781938
0.783276
0.784602
0.785916
0.787219
0.788509
0.789788
0.791055
0.792311
0.793556
0.794789
0.796012
0.797224
0.798425
0.799615
0.800795
0.801965
0.803125
0.804274
0.805413
0.806543
0.807663
0.808773
0.809874
0.810965
0.812047
0.81312
0.814183
0.815238
0.816284
0.817321
0.818349
0.819369
0.82038
0.821383
0.822377
0.823364
0.824342
0.825312
0.826274
0.827228
0.828175
0.829114
0.830045
0.830969
0.831885
0.832794
0.833696
0.83459
0.835478
0.836358
0.837231
0.838098
0.838957
0.83981
0.840656
0.841496
0.842329
0.843155
0.843975
0.844789
0.845596
0.846398
0.847193
0.847982
0.848765
0.849542
0.850313
0.851078
0.851838
0.852591
0.853339
0.854082
0.854819
0.85555
0.856276
0.856997
0.857712
0.858422
0.859127
0.859827
0.860521
0.861211
0.861895
0.862575
0.863249
0.863919
0.864584
0.865244
0.865899
0.866549
0.867195
0.867837
0.868473
0.869106
0.869734
0.870357
0.870976
0.87159
0.872201
0.872807
0.873409
0.874006
0.8746
0.875189
0.875775
0.876356
0.876933
0.877507
0.878076
0.878642
0.879203
0.879761
0.880315
0.880866
0.881412
0.881955
0.882495
0.88303
0.883562
0.884091
0.884616
0.885138
0.885656
0.886171
0.886682
0.88719
0.887695
0.888196
0.888694
0.889189
0.889681
0.890169
0.890654
0.891136
0.891616
0.892091
0.892564
0.893034
0.893501
0.893965
0.894426
0.894884
0.895339
0.895792
0.896241
0.896688
0.897132
0.897573
0.898011
0.898447
0.89888
0.89931
0.899737
0.900162
0.900585
0.901004
0.901421
0.901836
0.902248
0.902658
0.903065
0.903469
0.903871
0.904271
0.904668
0.905063
0.905456
0.905846
0.906234
0.906619
0.907003
0.907384
0.907762
0.908139
0.908513
0.908885
0.909255
0.909623
0.909988
0.910352
0.910713
0.911072
0.91143
0.911785
0.912138
0.912489
0.912838
0.913185
0.91353
0.913873
0.914214
0.914553
0.91489
0.915225
0.915559
0.91589
0.91622
0.916548
0.916874
0.917198
0.91752
0.91784
0.918159
0.918476
0.918791
0.919105
0.919417
0.919727
0.920035
0.920341
0.920646
0.92095
0.921251
0.921551
0.92185
0.922146
0.922441
0.922735
0.923027
0.923317
0.923606
0.923893
0.924179
0.924463
0.924746
0.925027
0.925307
0.925585
0.925862
0.926137
0.926411
0.926683
0.926954
0.927224
0.927492
0.927759
0.928024
0.928288
0.928551
0.928812
0.929072
0.929331
0.929588
0.929844
0.930098
0.930352
0.930604
0.930854
0.931104
0.931352
0.931599
0.931845
0.932089
0.932332
0.932574
0.932815
0.933055
0.933293
0.93353
0.933766
0.934001
0.934235
0.934467
0.934699
0.934929
0.935158
0.935386
0.935613
0.935838
0.936063
0.936286
0.936509
0.93673
0.93695
0.93717
0.937388
0.937605
0.937821
0.938036
0.93825
0.938463
0.938675
0.938886
0.939096
0.939305
0.939512
0.939719
0.939925
0.94013
0.940334
0.940537
0.94074
0.940941
0.941141
0.94134
0.941539
0.941736
0.941932
0.942128
0.942323
0.942517
0.942709
0.942901
0.943093
0.943283
0.943472
0.943661
0.943848
0.944035
0.944221
0.944406
0.94459
0.944774
0.944956
0.945138
0.945319
0.945499
0.945679
0.945857
0.946035
0.946212
0.946388
0.946563
0.946738
0.946912
0.947085
0.947257
0.947428
0.947599
0.947769
0.947938
0.948107
0.948275
0.948442
0.948608
0.948774
0.948939
0.949103
0.949266
0.949429
0.949591
0.949752
0.949913
0.950073
0.950232
0.950391
0.950549
0.950706
0.950863
0.951018
0.951174
0.951328
0.951482
0.951635
0.951788
0.95194
0.952091
0.952242
0.952392
0.952542
0.952691
0.952839
0.952986
0.953133
0.95328
0.953426
0.953571
0.953715
0.953859
0.954003
0.954145
0.954288
0.954429
0.95457
0.954711
0.954851
0.95499
0.955129
0.955267
0.955405
0.955542
0.955678
0.955814
0.95595
0.956084
0.956219
0.956353
0.956486
0.956619
0.956751
0.956883
0.957014
0.957144
0.957275
0.957404
0.957533
0.957662
0.95779
0.957917
0.958045
0.958171
0.958297
0.958423
0.958548
0.958673
0.958797
0.95892
0.959044
0.959166
0.959288
0.95941
0.959532
0.959652
0.959773
0.959893
0.960012
0.960131
0.96025
0.960368
0.960485
0.960602
0.960719
0.960835
0.960951
0.961067
0.961182
0.961296
0.96141
0.961524
0.961637
0.96175
0.961862
0.961974
0.962086
0.962197
0.962308
0.962418
0.962528
0.962638
0.962747
0.962856
0.962964
0.963072
0.963179
0.963286
0.963393
0.9635
0.963605
0.963711
0.963816
0.963921
0.964025
0.964129
0.964233
0.964336
0.964439
0.964542
0.964644
0.964746
0.964847
0.964948
0.965049
0.965149
0.965249
0.965349
0.965448
0.965547
0.965646
0.965744
0.965842
0.96594
0.966037
0.966134
0.96623
0.966326
0.966422
0.966518
0.966613
0.966708
0.966802
0.966896
0.96699
0.967084
0.967177
0.96727
0.967362
0.967454
0.967546
0.967638
0.967729
0.96782
0.967911
0.968001
0.968091
0.968181
0.96827
0.968359
0.968448
0.968537
0.968625
0.968713
0.9688
0.968887
0.968974
0.969061
0.969148
0.969234
0.969319
0.969405
0.96949
0.969575
0.96966
0.969744
0.969828
0.969912
0.969996
0.970079
0.970162
0.970245
0.970327
0.970409
0.970491
0.970573
0.970654
0.970735
0.970816
0.970897
0.970977
0.971057
0.971137
0.971216
0.971295
0.971374
0.971453
0.971531
0.97161
0.971688
0.971765
0.971843
0.97192
0.971997
0.972074
0.97215
0.972226
0.972302
0.972378
0.972453
0.972528
0.972603
0.972678
0.972753
0.972827
0.972901
0.972975
0.973048
0.973121
0.973194
0.973267
0.97334
0.973412
0.973484
0.973556
0.973628
0.973699
0.973771
0.973842
0.973912
0.973983
0.974053
0.974123
0.974193
0.974263
0.974332
0.974401
0.97447
0.974539
0.974608
0.974676
0.974744
0.974812
0.97488
0.974947
0.975015
0.975082
0.975148
0.975215
0.975282
0.975348
0.975414
0.97548
0.975545
0.975611
0.975676
0.975741
0.975806
0.97587
0.975935
0.975999
0.976063
0.976127
0.97619
0.976254
0.976317
0.97638
0.976443
0.976505
0.976568
0.97663
0.976692
0.976754
0.976816
0.976877
0.976939
0.977
0.977061
0.977121
0.977182
0.977242
0.977302
0.977362
0.977422
0.977482
0.977541
0.977601
0.97766
0.977719
0.977777
0.977836
0.977894
0.977952
0.97801
0.978068
0.978126
0.978183
0.978241
0.978298
0.978355
0.978412
0.978468
0.978525
0.978581
0.978637
0.978693
0.978749
0.978804
0.97886
0.978915
0.97897
0.979025
0.97908
0.979134
0.979189
0.979243
0.979297
0.979351
0.979405
0.979458
0.979512
0.979565
0.979618
0.979671
0.979724
0.979776
0.979829
0.979881
0.979933
0.979985
0.980037
0.980089
0.98014
0.980192
0.980243
0.980294
0.980345
0.980396
0.980446
0.980497
0.980547
0.980597
0.980647
0.980697
0.980746
0.980796
0.980845
0.980894
0.980944
0.980992
0.981041
0.98109
0.981138
0.981187
0.981235
0.981283
0.981331
0.981378
0.981426
0.981473
0.981521
0.981568
0.981615
0.981662
0.981708
0.981755
0.981801
0.981848
0.981894
0.98194
0.981986
0.982031
0.982077
0.982122
0.982168
0.982213
0.982258
0.982303
0.982347
0.982392
0.982436
0.982481
0.982525
0.982569
0.982613
0.982656
0.9827
0.982744
0.982787
0.98283
0.982873
0.982916
0.982959
0.983002
0.983044
0.983086
0.983129
0.983171
0.983213
0.983255
0.983296
0.983338
0.983379
0.983421
0.983462
0.983503
0.983544
0.983585
0.983625
0.983666
0.983706
0.983747
0.983787
0.983827
0.983867
0.983906
0.983946
0.983985
0.984025
0.984064
0.984103
0.984142
0.984181
0.98422
0.984258
0.984297
0.984335
0.984373
0.984411
0.984449
0.984487
0.984525
0.984562
0.9846
0.984637
0.984674
0.984711
0.984748
0.984785
0.984822
0.984858
0.984894
0.984931
0.984967
0.985003
0.985039
0.985075
0.98511
0.985146
0.985181
0.985217
0.985252
0.985287
0.985322
0.985357
0.985391
0.985426
0.98546
0.985495
0.985529
0.985563
0.985597
0.985631
0.985664
0.985698
0.985731
0.985765
0.985798
0.985831
0.985864
0.985897
0.985929
0.985962
0.985994
0.986027
0.986059
0.986091
0.986123
0.986155
0.986187
0.986218
0.98625
0.986281
0.986313
0.986344
0.986375
0.986406
0.986436
0.986467
0.986497
0.986528
0.986558
0.986588
0.986618
0.986648
0.986678
0.986708
0.986737
0.986767
0.986796
0.986825
0.986854
0.986883
0.986912
0.986941
0.98697
0.986998
0.987026
0.987055
0.987083
0.987111
0.987139
0.987166
0.987194
0.987222
0.987249
0.987276
0.987303
0.987331
0.987357
0.987384
0.987411
0.987438
0.987464
0.98749
0.987517
0.987543
0.987569
0.987594
0.98762
0.987646
0.987671
0.987697
0.987722
0.987747
0.987772
0.987797
0.987822
0.987846
0.987871
0.987895
0.98792
0.987944
0.987968
0.987992
0.988016
0.988039
0.988063
0.988086
0.98811
0.988133
0.988156
0.988179
0.988202
0.988225
0.988247
0.98827
0.988292
0.988314
0.988336
0.988358
0.98838
0.988402
0.988424
0.988445
0.988467
0.988488
0.988509
0.98853
0.988551
0.988572
0.988593
0.988613
0.988634
0.988654
0.988674
0.988694
0.988714
0.988734
0.988754
0.988774
0.988793
0.988812
0.988832
0.988851
0.98887
0.988889
0.988907
0.988926
0.988945
0.988963
0.988981
0.988999
0.989018
0.989035
0.989053
0.989071
0.989088
0.989106
0.989123
0.98914
0.989158
0.989174
0.989191
0.989208
0.989225
0.989241
0.989257
0.989274
0.98929
0.989306
0.989322
0.989337
0.989353
0.989369
0.989384
0.989399
0.989414
0.989429
0.989444
0.989459
0.989474
0.989488
0.989503
0.989517
0.989531
0.989545
0.989559
0.989573
0.989587
0.9896
0.989614
0.989627
0.98964
0.989653
0.989666
0.989679
0.989692
0.989704
0.989717
0.989729
0.989741
0.989754
0.989766
0.989777
0.989789
0.989801
0.989812
0.989824
0.989835
0.989846
0.989857
0.989868
0.989879
0.98989
0.9899
0.98991
0.989921
0.989931
0.989941
0.989951
0.989961
0.989971
0.98998
0.98999
0.989999
0.990008
0.990017
0.990026
0.990035
0.990044
0.990053
0.990061
0.990069
0.990078
0.990086
0.990094
0.990102
0.99011
0.990117
0.990125
0.990132
0.99014
0.990147
0.990154
0.990161
0.990168
0.990175
0.990181
0.990188
0.990194
0.9902
0.990207
0.990213
0.990218
0.990224
0.99023
0.990236
0.990241
0.990246
0.990252
0.990257
0.990262
0.990267
0.990271
0.990276
0.99028
0.990285
0.990289
0.990293
0.990297
0.990301
0.990305
0.990309
0.990313
0.990316
0.99032
0.990323
0.990326
0.990329
0.990332
0.990335
0.990338
0.99034
0.990343
0.990345
0.990347
0.990349
0.990351
0.990353
0.990355
0.990357
0.990359
0.99036
0.990361
0.990363
0.990364
0.990365
0.990366
0.990367
0.990368
0.990368
0.990369
0.990369
0.99037
0.99037
0.99037
)
;

boundaryField
{
    bottom
    {
        type            calculated;
        value           uniform 0.5;
    }
    top
    {
        type            calculated;
        value           uniform 0.99037;
    }
    walls
    {
        type            calculated;
        value           nonuniform List<scalar> 
6000
(
2.68149e-06
2.94032e-06
3.21212e-06
3.4859e-06
3.77018e-06
4.08953e-06
4.51031e-06
5.26466e-06
6.17757e-06
6.95002e-06
7.65717e-06
8.33071e-06
8.98515e-06
9.62789e-06
1.0263e-05
1.0893e-05
1.15193e-05
1.21429e-05
1.27645e-05
1.33844e-05
1.40031e-05
1.46208e-05
1.52375e-05
1.58535e-05
1.64689e-05
1.70837e-05
1.7698e-05
1.83119e-05
1.89253e-05
1.95384e-05
2.01512e-05
2.07636e-05
2.13758e-05
2.19877e-05
2.25993e-05
2.32107e-05
2.38219e-05
2.44329e-05
2.50437e-05
2.56543e-05
2.62647e-05
2.68749e-05
2.7485e-05
2.8095e-05
2.87048e-05
2.93144e-05
2.9924e-05
3.05334e-05
3.11426e-05
3.17518e-05
3.23609e-05
3.29698e-05
3.35786e-05
3.41874e-05
3.4796e-05
3.54046e-05
3.6013e-05
3.66214e-05
3.72297e-05
3.78379e-05
3.8446e-05
3.90541e-05
3.9662e-05
4.027e-05
4.08778e-05
4.14856e-05
4.20933e-05
4.27009e-05
4.33085e-05
4.3916e-05
4.45235e-05
4.51309e-05
4.57382e-05
4.63455e-05
4.69528e-05
4.756e-05
4.81671e-05
4.87742e-05
4.93812e-05
4.99882e-05
5.05952e-05
5.12021e-05
5.1809e-05
5.24158e-05
5.30226e-05
5.36293e-05
5.42361e-05
5.48427e-05
5.54494e-05
5.6056e-05
5.66625e-05
5.72691e-05
5.78755e-05
5.8482e-05
5.90884e-05
5.96948e-05
6.03012e-05
6.09075e-05
6.15138e-05
6.21201e-05
6.27264e-05
6.33326e-05
6.39388e-05
6.45449e-05
6.51511e-05
6.57572e-05
6.63633e-05
6.69693e-05
6.75753e-05
6.81814e-05
6.87873e-05
6.93933e-05
6.99992e-05
7.06052e-05
7.12111e-05
7.18169e-05
7.24228e-05
7.30286e-05
7.36344e-05
7.42402e-05
7.4846e-05
7.54517e-05
7.60574e-05
7.66632e-05
7.72688e-05
7.78745e-05
7.84802e-05
7.90858e-05
7.96914e-05
8.0297e-05
8.09026e-05
8.15082e-05
8.21137e-05
8.27193e-05
8.33248e-05
8.39303e-05
8.45358e-05
8.51412e-05
8.57467e-05
8.63521e-05
8.69575e-05
8.75629e-05
8.81683e-05
8.87737e-05
8.93791e-05
8.99844e-05
9.05898e-05
9.11951e-05
9.18004e-05
9.24057e-05
9.3011e-05
9.36163e-05
9.42215e-05
9.48268e-05
9.5432e-05
9.60372e-05
9.66425e-05
9.72477e-05
9.78528e-05
9.8458e-05
9.90632e-05
9.96683e-05
0.000100273
0.000100879
0.000101484
0.000102089
0.000102694
0.000103299
0.000103904
0.000104509
0.000105114
0.000105719
0.000106324
0.000106929
0.000107534
0.000108139
0.000108744
0.000109349
0.000109954
0.000110559
0.000111164
0.000111769
0.000112374
0.000112979
0.000113584
0.000114189
0.000114794
0.000115399
0.000116004
0.000116609
0.000117213
0.000117818
0.000118423
0.000119028
0.000119633
0.000120238
0.000120843
0.000121447
0.000122052
0.000122657
0.000123262
0.000123867
0.000124471
0.000125076
0.000125681
0.000126286
0.00012689
0.000127495
0.0001281
0.000128705
0.000129309
0.000129914
0.000130519
0.000131124
0.000131728
0.000132333
0.000132938
0.000133542
0.000134147
0.000134752
0.000135356
0.000135961
0.000136566
0.00013717
0.000137775
0.00013838
0.000138984
0.000139589
0.000140194
0.000140798
0.000141403
0.000142007
0.000142612
0.000143217
0.000143821
0.000144426
0.00014503
0.000145635
0.000146239
0.000146844
0.000147456
0.000149518
0.000422856
0.0123639
0.0252351
0.0378537
0.0502271
0.0623621
0.0742649
0.0859414
0.0973975
0.108639
0.11967
0.130497
0.141125
0.151559
0.161802
0.171861
0.181739
0.191441
0.20097
0.210331
0.219529
0.228566
0.237446
0.246173
0.254751
0.263183
0.271472
0.279621
0.287634
0.295514
0.303263
0.310885
0.318381
0.325756
0.333011
0.34015
0.347174
0.354086
0.360889
0.367585
0.374175
0.380663
0.38705
0.393339
0.399531
0.405628
0.411633
0.417547
0.423372
0.42911
0.434762
0.440331
0.445818
0.451224
0.456551
0.461801
0.466975
0.472074
0.477101
0.482056
0.486941
0.491756
0.496504
0.501186
0.505803
0.510355
0.514845
0.519274
0.523642
0.52795
0.5322
0.536393
0.54053
0.544612
0.548639
0.552613
0.556535
0.560405
0.564225
0.567995
0.571716
0.57539
0.579016
0.582596
0.58613
0.58962
0.593066
0.596468
0.599828
0.603146
0.606423
0.609659
0.612856
0.616013
0.619132
0.622214
0.625257
0.628265
0.631236
0.634171
0.637072
0.639938
0.642771
0.64557
0.648337
0.651071
0.653773
0.656444
0.659084
0.661694
0.664274
0.666825
0.669347
0.67184
0.674305
0.676743
0.679153
0.681536
0.683893
0.686224
0.688529
0.690809
0.693064
0.695295
0.697501
0.699683
0.701842
0.703978
0.706091
0.708181
0.710249
0.712295
0.71432
0.716323
0.718306
0.720268
0.722209
0.72413
0.726032
0.727913
0.729776
0.73162
0.733444
0.735251
0.737039
0.738809
0.740561
0.742296
0.744013
0.745713
0.747397
0.749064
0.750714
0.752348
0.753967
0.755569
0.757156
0.758728
0.760284
0.761826
0.763353
0.764865
0.766362
0.767846
0.769315
0.770771
0.772213
0.773641
0.775057
0.776458
0.777847
0.779223
0.780587
0.781938
0.783276
0.784602
0.785916
0.787219
0.788509
0.789788
0.791055
0.792311
0.793556
0.794789
0.796012
0.797224
0.798425
0.799615
0.800795
0.801965
0.803125
0.804274
0.805413
0.806543
0.807663
0.808773
0.809874
0.810965
0.812047
0.81312
0.814183
0.815238
0.816284
0.817321
0.818349
0.819369
0.82038
0.821383
0.822377
0.823364
0.824342
0.825312
0.826274
0.827228
0.828175
0.829114
0.830045
0.830969
0.831885
0.832794
0.833696
0.83459
0.835478
0.836358
0.837231
0.838098
0.838957
0.83981
0.840656
0.841496
0.842329
0.843155
0.843975
0.844789
0.845596
0.846398
0.847193
0.847982
0.848765
0.849542
0.850313
0.851078
0.851838
0.852591
0.853339
0.854082
0.854819
0.85555
0.856276
0.856997
0.857712
0.858422
0.859127
0.859827
0.860521
0.861211
0.861895
0.862575
0.863249
0.863919
0.864584
0.865244
0.865899
0.866549
0.867195
0.867837
0.868473
0.869106
0.869734
0.870357
0.870976
0.87159
0.872201
0.872807
0.873409
0.874006
0.8746
0.875189
0.875775
0.876356
0.876933
0.877507
0.878076
0.878642
0.879203
0.879761
0.880315
0.880866
0.881412
0.881955
0.882495
0.88303
0.883562
0.884091
0.884616
0.885138
0.885656
0.886171
0.886682
0.88719
0.887695
0.888196
0.888694
0.889189
0.889681
0.890169
0.890654
0.891136
0.891616
0.892091
0.892564
0.893034
0.893501
0.893965
0.894426
0.894884
0.895339
0.895792
0.896241
0.896688
0.897132
0.897573
0.898011
0.898447
0.89888
0.89931
0.899737
0.900162
0.900585
0.901004
0.901421
0.901836
0.902248
0.902658
0.903065
0.903469
0.903871
0.904271
0.904668
0.905063
0.905456
0.905846
0.906234
0.906619
0.907003
0.907384
0.907762
0.908139
0.908513
0.908885
0.909255
0.909623
0.909988
0.910352
0.910713
0.911072
0.91143
0.911785
0.912138
0.912489
0.912838
0.913185
0.91353
0.913873
0.914214
0.914553
0.91489
0.915225
0.915559
0.91589
0.91622
0.916548
0.916874
0.917198
0.91752
0.91784
0.918159
0.918476
0.918791
0.919105
0.919417
0.919727
0.920035
0.920341
0.920646
0.92095
0.921251
0.921551
0.92185
0.922146
0.922441
0.922735
0.923027
0.923317
0.923606
0.923893
0.924179
0.924463
0.924746
0.925027
0.925307
0.925585
0.925862
0.926137
0.926411
0.926683
0.926954
0.927224
0.927492
0.927759
0.928024
0.928288
0.928551
0.928812
0.929072
0.929331
0.929588
0.929844
0.930098
0.930352
0.930604
0.930854
0.931104
0.931352
0.931599
0.931845
0.932089
0.932332
0.932574
0.932815
0.933055
0.933293
0.93353
0.933766
0.934001
0.934235
0.934467
0.934699
0.934929
0.935158
0.935386
0.935613
0.935838
0.936063
0.936286
0.936509
0.93673
0.93695
0.93717
0.937388
0.937605
0.937821
0.938036
0.93825
0.938463
0.938675
0.938886
0.939096
0.939305
0.939512
0.939719
0.939925
0.94013
0.940334
0.940537
0.94074
0.940941
0.941141
0.94134
0.941539
0.941736
0.941932
0.942128
0.942323
0.942517
0.942709
0.942901
0.943093
0.943283
0.943472
0.943661
0.943848
0.944035
0.944221
0.944406
0.94459
0.944774
0.944956
0.945138
0.945319
0.945499
0.945679
0.945857
0.946035
0.946212
0.946388
0.946563
0.946738
0.946912
0.947085
0.947257
0.947428
0.947599
0.947769
0.947938
0.948107
0.948275
0.948442
0.948608
0.948774
0.948939
0.949103
0.949266
0.949429
0.949591
0.949752
0.949913
0.950073
0.950232
0.950391
0.950549
0.950706
0.950863
0.951018
0.951174
0.951328
0.951482
0.951635
0.951788
0.95194
0.952091
0.952242
0.952392
0.952542
0.952691
0.952839
0.952986
0.953133
0.95328
0.953426
0.953571
0.953715
0.953859
0.954003
0.954145
0.954288
0.954429
0.95457
0.954711
0.954851
0.95499
0.955129
0.955267
0.955405
0.955542
0.955678
0.955814
0.95595
0.956084
0.956219
0.956353
0.956486
0.956619
0.956751
0.956883
0.957014
0.957144
0.957275
0.957404
0.957533
0.957662
0.95779
0.957917
0.958045
0.958171
0.958297
0.958423
0.958548
0.958673
0.958797
0.95892
0.959044
0.959166
0.959288
0.95941
0.959532
0.959652
0.959773
0.959893
0.960012
0.960131
0.96025
0.960368
0.960485
0.960602
0.960719
0.960835
0.960951
0.961067
0.961182
0.961296
0.96141
0.961524
0.961637
0.96175
0.961862
0.961974
0.962086
0.962197
0.962308
0.962418
0.962528
0.962638
0.962747
0.962856
0.962964
0.963072
0.963179
0.963286
0.963393
0.9635
0.963605
0.963711
0.963816
0.963921
0.964025
0.964129
0.964233
0.964336
0.964439
0.964542
0.964644
0.964746
0.964847
0.964948
0.965049
0.965149
0.965249
0.965349
0.965448
0.965547
0.965646
0.965744
0.965842
0.96594
0.966037
0.966134
0.96623
0.966326
0.966422
0.966518
0.966613
0.966708
0.966802
0.966896
0.96699
0.967084
0.967177
0.96727
0.967362
0.967454
0.967546
0.967638
0.967729
0.96782
0.967911
0.968001
0.968091
0.968181
0.96827
0.968359
0.968448
0.968537
0.968625
0.968713
0.9688
0.968887
0.968974
0.969061
0.969148
0.969234
0.969319
0.969405
0.96949
0.969575
0.96966
0.969744
0.969828
0.969912
0.969996
0.970079
0.970162
0.970245
0.970327
0.970409
0.970491
0.970573
0.970654
0.970735
0.970816
0.970897
0.970977
0.971057
0.971137
0.971216
0.971295
0.971374
0.971453
0.971531
0.97161
0.971688
0.971765
0.971843
0.97192
0.971997
0.972074
0.97215
0.972226
0.972302
0.972378
0.972453
0.972528
0.972603
0.972678
0.972753
0.972827
0.972901
0.972975
0.973048
0.973121
0.973194
0.973267
0.97334
0.973412
0.973484
0.973556
0.973628
0.973699
0.973771
0.973842
0.973912
0.973983
0.974053
0.974123
0.974193
0.974263
0.974332
0.974401
0.97447
0.974539
0.974608
0.974676
0.974744
0.974812
0.97488
0.974947
0.975015
0.975082
0.975148
0.975215
0.975282
0.975348
0.975414
0.97548
0.975545
0.975611
0.975676
0.975741
0.975806
0.97587
0.975935
0.975999
0.976063
0.976127
0.97619
0.976254
0.976317
0.97638
0.976443
0.976505
0.976568
0.97663
0.976692
0.976754
0.976816
0.976877
0.976939
0.977
0.977061
0.977121
0.977182
0.977242
0.977302
0.977362
0.977422
0.977482
0.977541
0.977601
0.97766
0.977719
0.977777
0.977836
0.977894
0.977952
0.97801
0.978068
0.978126
0.978183
0.978241
0.978298
0.978355
0.978412
0.978468
0.978525
0.978581
0.978637
0.978693
0.978749
0.978804
0.97886
0.978915
0.97897
0.979025
0.97908
0.979134
0.979189
0.979243
0.979297
0.979351
0.979405
0.979458
0.979512
0.979565
0.979618
0.979671
0.979724
0.979776
0.979829
0.979881
0.979933
0.979985
0.980037
0.980089
0.98014
0.980192
0.980243
0.980294
0.980345
0.980396
0.980446
0.980497
0.980547
0.980597
0.980647
0.980697
0.980746
0.980796
0.980845
0.980894
0.980944
0.980992
0.981041
0.98109
0.981138
0.981187
0.981235
0.981283
0.981331
0.981378
0.981426
0.981473
0.981521
0.981568
0.981615
0.981662
0.981708
0.981755
0.981801
0.981848
0.981894
0.98194
0.981986
0.982031
0.982077
0.982122
0.982168
0.982213
0.982258
0.982303
0.982347
0.982392
0.982436
0.982481
0.982525
0.982569
0.982613
0.982656
0.9827
0.982744
0.982787
0.98283
0.982873
0.982916
0.982959
0.983002
0.983044
0.983086
0.983129
0.983171
0.983213
0.983255
0.983296
0.983338
0.983379
0.983421
0.983462
0.983503
0.983544
0.983585
0.983625
0.983666
0.983706
0.983747
0.983787
0.983827
0.983867
0.983906
0.983946
0.983985
0.984025
0.984064
0.984103
0.984142
0.984181
0.98422
0.984258
0.984297
0.984335
0.984373
0.984411
0.984449
0.984487
0.984525
0.984562
0.9846
0.984637
0.984674
0.984711
0.984748
0.984785
0.984822
0.984858
0.984894
0.984931
0.984967
0.985003
0.985039
0.985075
0.98511
0.985146
0.985181
0.985217
0.985252
0.985287
0.985322
0.985357
0.985391
0.985426
0.98546
0.985495
0.985529
0.985563
0.985597
0.985631
0.985664
0.985698
0.985731
0.985765
0.985798
0.985831
0.985864
0.985897
0.985929
0.985962
0.985994
0.986027
0.986059
0.986091
0.986123
0.986155
0.986187
0.986218
0.98625
0.986281
0.986313
0.986344
0.986375
0.986406
0.986436
0.986467
0.986497
0.986528
0.986558
0.986588
0.986618
0.986648
0.986678
0.986708
0.986737
0.986767
0.986796
0.986825
0.986854
0.986883
0.986912
0.986941
0.98697
0.986998
0.987026
0.987055
0.987083
0.987111
0.987139
0.987166
0.987194
0.987222
0.987249
0.987276
0.987303
0.987331
0.987357
0.987384
0.987411
0.987438
0.987464
0.98749
0.987517
0.987543
0.987569
0.987594
0.98762
0.987646
0.987671
0.987697
0.987722
0.987747
0.987772
0.987797
0.987822
0.987846
0.987871
0.987895
0.98792
0.987944
0.987968
0.987992
0.988016
0.988039
0.988063
0.988086
0.98811
0.988133
0.988156
0.988179
0.988202
0.988225
0.988247
0.98827
0.988292
0.988314
0.988336
0.988358
0.98838
0.988402
0.988424
0.988445
0.988467
0.988488
0.988509
0.98853
0.988551
0.988572
0.988593
0.988613
0.988634
0.988654
0.988674
0.988694
0.988714
0.988734
0.988754
0.988774
0.988793
0.988812
0.988832
0.988851
0.98887
0.988889
0.988907
0.988926
0.988945
0.988963
0.988981
0.988999
0.989018
0.989035
0.989053
0.989071
0.989088
0.989106
0.989123
0.98914
0.989158
0.989174
0.989191
0.989208
0.989225
0.989241
0.989257
0.989274
0.98929
0.989306
0.989322
0.989337
0.989353
0.989369
0.989384
0.989399
0.989414
0.989429
0.989444
0.989459
0.989474
0.989488
0.989503
0.989517
0.989531
0.989545
0.989559
0.989573
0.989587
0.9896
0.989614
0.989627
0.98964
0.989653
0.989666
0.989679
0.989692
0.989704
0.989717
0.989729
0.989741
0.989754
0.989766
0.989777
0.989789
0.989801
0.989812
0.989824
0.989835
0.989846
0.989857
0.989868
0.989879
0.98989
0.9899
0.98991
0.989921
0.989931
0.989941
0.989951
0.989961
0.989971
0.98998
0.98999
0.989999
0.990008
0.990017
0.990026
0.990035
0.990044
0.990053
0.990061
0.990069
0.990078
0.990086
0.990094
0.990102
0.99011
0.990117
0.990125
0.990132
0.99014
0.990147
0.990154
0.990161
0.990168
0.990175
0.990181
0.990188
0.990194
0.9902
0.990207
0.990213
0.990218
0.990224
0.99023
0.990236
0.990241
0.990246
0.990252
0.990257
0.990262
0.990267
0.990271
0.990276
0.99028
0.990285
0.990289
0.990293
0.990297
0.990301
0.990305
0.990309
0.990313
0.990316
0.99032
0.990323
0.990326
0.990329
0.990332
0.990335
0.990338
0.99034
0.990343
0.990345
0.990347
0.990349
0.990351
0.990353
0.990355
0.990357
0.990359
0.99036
0.990361
0.990363
0.990364
0.990365
0.990366
0.990367
0.990368
0.990368
0.990369
0.990369
0.99037
0.99037
0.99037
2.68149e-06
2.94032e-06
3.21212e-06
3.4859e-06
3.77018e-06
4.08953e-06
4.51031e-06
5.26466e-06
6.17757e-06
6.95002e-06
7.65717e-06
8.33071e-06
8.98515e-06
9.62789e-06
1.0263e-05
1.0893e-05
1.15193e-05
1.21429e-05
1.27645e-05
1.33844e-05
1.40031e-05
1.46208e-05
1.52375e-05
1.58535e-05
1.64689e-05
1.70837e-05
1.7698e-05
1.83119e-05
1.89253e-05
1.95384e-05
2.01512e-05
2.07636e-05
2.13758e-05
2.19877e-05
2.25993e-05
2.32107e-05
2.38219e-05
2.44329e-05
2.50437e-05
2.56543e-05
2.62647e-05
2.68749e-05
2.7485e-05
2.8095e-05
2.87048e-05
2.93144e-05
2.9924e-05
3.05334e-05
3.11426e-05
3.17518e-05
3.23609e-05
3.29698e-05
3.35786e-05
3.41874e-05
3.4796e-05
3.54046e-05