/*--------------------------------*- C++ -*----------------------------------*\
| =========                 |                                                 |
| \\      /  F ield         | foam-extend: Open Source CFD                    |
|  \\    /   O peration     | Version:     5.0                                |
|   \\  /    A nd           | Web:         http://www.foam-extend.org         |
|    \\/     M anipulation  |                                                 |
\*---------------------------------------------------------------------------*/
FoamFile
{
    version     2.0;
    format      ascii;
    class       volScalarField;
    location    "20000";
    object      S.water;
}
// * * * * * * * * * * * * * * * * * * * * * * * * * * * * * * * * * * * * * //

dimensions      [0 0 0 0 0 0 0];

internalField   nonuniform List<scalar> 
1500
(
0.999997
0.999997
0.999997
0.999997
0.999996
0.999996
0.999995
0.999995
0.999994
0.999993
0.999992
0.999992
0.999991
0.99999
0.99999
0.999989
0.999988
0.999988
0.999987
0.999987
0.999986
0.999985
0.999985
0.999984
0.999984
0.999983
0.999982
0.999982
0.999981
0.99998
0.99998
0.999979
0.999979
0.999978
0.999977
0.999977
0.999976
0.999976
0.999975
0.999974
0.999974
0.999973
0.999973
0.999972
0.999971
0.999971
0.99997
0.999969
0.999969
0.999968
0.999968
0.999967
0.999966
0.999966
0.999965
0.999965
0.999964
0.999963
0.999963
0.999962
0.999962
0.999961
0.99996
0.99996
0.999959
0.999959
0.999958
0.999957
0.999957
0.999956
0.999955
0.999955
0.999954
0.999954
0.999953
0.999952
0.999952
0.999951
0.999951
0.99995
0.999949
0.999949
0.999948
0.999948
0.999947
0.999946
0.999946
0.999945
0.999945
0.999944
0.999943
0.999943
0.999942
0.999942
0.999941
0.99994
0.99994
0.999939
0.999938
0.999938
0.999937
0.999937
0.999936
0.999935
0.999935
0.999934
0.999934
0.999933
0.999932
0.999932
0.999931
0.999931
0.99993
0.999929
0.999929
0.999928
0.999928
0.999927
0.999926
0.999926
0.999925
0.999925
0.999924
0.999923
0.999923
0.999922
0.999922
0.999921
0.99992
0.99992
0.999919
0.999918
0.999918
0.999917
0.999917
0.999916
0.999915
0.999915
0.999914
0.999914
0.999913
0.999912
0.999912
0.999911
0.999911
0.99991
0.999909
0.999909
0.999908
0.999908
0.999907
0.999906
0.999906
0.999905
0.999905
0.999904
0.999903
0.999903
0.999902
0.999902
0.999901
0.9999
0.9999
0.999899
0.999899
0.999898
0.999897
0.999897
0.999896
0.999895
0.999895
0.999894
0.999894
0.999893
0.999892
0.999892
0.999891
0.999891
0.99989
0.999889
0.999889
0.999888
0.999888
0.999887
0.999886
0.999886
0.999885
0.999885
0.999884
0.999883
0.999883
0.999882
0.999882
0.999881
0.99988
0.99988
0.999879
0.999879
0.999878
0.999877
0.999877
0.999876
0.999876
0.999875
0.999874
0.999874
0.999873
0.999873
0.999872
0.999871
0.999871
0.99987
0.999869
0.999869
0.999868
0.999868
0.999867
0.999866
0.999866
0.999865
0.999865
0.999864
0.999863
0.999863
0.999862
0.999862
0.999861
0.99986
0.99986
0.999859
0.999859
0.999858
0.999857
0.999857
0.999856
0.999856
0.999855
0.999854
0.999854
0.999853
0.999853
0.99985
0.999577
0.987636
0.974765
0.962146
0.949773
0.937638
0.925735
0.914059
0.902603
0.891361
0.88033
0.869503
0.858875
0.848441
0.838198
0.828139
0.818261
0.808559
0.79903
0.789669
0.780471
0.771434
0.762554
0.753827
0.745249
0.736817
0.728528
0.720379
0.712366
0.704486
0.696737
0.689115
0.681619
0.674244
0.666989
0.65985
0.652826
0.645914
0.639111
0.632415
0.625825
0.619337
0.61295
0.606661
0.600469
0.594372
0.588367
0.582453
0.576628
0.57089
0.565238
0.559669
0.554182
0.548776
0.543449
0.538199
0.533025
0.527926
0.522899
0.517944
0.513059
0.508244
0.503496
0.498814
0.494197
0.489645
0.485155
0.480726
0.476358
0.47205
0.4678
0.463607
0.45947
0.455388
0.451361
0.447387
0.443465
0.439595
0.435775
0.432005
0.428284
0.42461
0.420984
0.417404
0.41387
0.41038
0.406934
0.403532
0.400172
0.396854
0.393577
0.390341
0.387144
0.383987
0.380868
0.377786
0.374743
0.371735
0.368764
0.365829
0.362928
0.360062
0.357229
0.35443
0.351663
0.348929
0.346227
0.343556
0.340916
0.338306
0.335726
0.333175
0.330653
0.32816
0.325695
0.323257
0.320847
0.318464
0.316107
0.313776
0.311471
0.309191
0.306936
0.304705
0.302499
0.300317
0.298158
0.296022
0.293909
0.291819
0.289751
0.287705
0.28568
0.283677
0.281694
0.279732
0.277791
0.27587
0.273968
0.272087
0.270224
0.26838
0.266556
0.264749
0.262961
0.261191
0.259439
0.257704
0.255987
0.254287
0.252603
0.250936
0.249286
0.247652
0.246033
0.244431
0.242844
0.241272
0.239716
0.238174
0.236647
0.235135
0.233638
0.232154
0.230685
0.229229
0.227787
0.226359
0.224943
0.223542
0.222153
0.220777
0.219413
0.218062
0.216724
0.215398
0.214084
0.212781
0.211491
0.210212
0.208945
0.207689
0.206444
0.205211
0.203988
0.202776
0.201575
0.200385
0.199205
0.198035
0.196875
0.195726
0.194587
0.193457
0.192337
0.191227
0.190126
0.189035
0.187953
0.18688
0.185817
0.184762
0.183716
0.182679
0.181651
0.180631
0.17962
0.178617
0.177623
0.176636
0.175658
0.174688
0.173726
0.172772
0.171825
0.170886
0.169955
0.169031
0.168115
0.167206
0.166304
0.16541
0.164522
0.163642
0.162769
0.161902
0.161043
0.16019
0.159344
0.158504
0.157671
0.156845
0.156025
0.155211
0.154404
0.153602
0.152807
0.152018
0.151235
0.150458
0.149687
0.148922
0.148162
0.147409
0.146661
0.145918
0.145181
0.14445
0.143724
0.143003
0.142288
0.141578
0.140873
0.140173
0.139479
0.138789
0.138105
0.137425
0.136751
0.136081
0.135416
0.134756
0.134101
0.133451
0.132805
0.132163
0.131527
0.130894
0.130266
0.129643
0.129024
0.12841
0.127799
0.127193
0.126591
0.125994
0.1254
0.124811
0.124225
0.123644
0.123067
0.122493
0.121924
0.121358
0.120797
0.120239
0.119685
0.119134
0.118588
0.118045
0.117505
0.11697
0.116438
0.115909
0.115384
0.114862
0.114344
0.113829
0.113318
0.11281
0.112305
0.111804
0.111306
0.110811
0.110319
0.109831
0.109346
0.108864
0.108384
0.107909
0.107436
0.106966
0.106499
0.106035
0.105574
0.105116
0.104661
0.104208
0.103759
0.103312
0.102868
0.102427
0.101989
0.101553
0.10112
0.10069
0.100263
0.0998377
0.0994154
0.0989957
0.0985786
0.098164
0.097752
0.0973424
0.0969354
0.0965308
0.0961287
0.095729
0.0953317
0.0949367
0.0945442
0.094154
0.0937661
0.0933806
0.0929973
0.0926163
0.0922376
0.0918611
0.0914868
0.0911147
0.0907448
0.0903771
0.0900115
0.0896481
0.0892868
0.0889276
0.0885704
0.0882153
0.0878623
0.0875113
0.0871623
0.0868154
0.0864704
0.0861274
0.0857863
0.0854472
0.08511
0.0847747
0.0844413
0.0841098
0.0837802
0.0834524
0.0831265
0.0828023
0.08248
0.0821595
0.0818408
0.0815238
0.0812086
0.0808952
0.0805835
0.0802734
0.0799651
0.0796585
0.0793536
0.0790503
0.0787487
0.0784487
0.0781504
0.0778536
0.0775585
0.077265
0.076973
0.0766827
0.0763938
0.0761066
0.0758208
0.0755366
0.0752539
0.0749727
0.074693
0.0744148
0.0741381
0.0738628
0.0735889
0.0733165
0.0730456
0.072776
0.0725078
0.0722411
0.0719757
0.0717118
0.0714491
0.0711879
0.070928
0.0706694
0.0704122
0.0701562
0.0699016
0.0696483
0.0693963
0.0691456
0.0688961
0.068648
0.068401
0.0681553
0.0679109
0.0676677
0.0674257
0.0671849
0.0669454
0.066707
0.0664698
0.0662338
0.065999
0.0657653
0.0655328
0.0653015
0.0650713
0.0648422
0.0646143
0.0643874
0.0641617
0.0639371
0.0637136
0.0634912
0.0632698
0.0630495
0.0628303
0.0626122
0.0623951
0.0621791
0.061964
0.0617501
0.0615371
0.0613252
0.0611143
0.0609044
0.0606954
0.0604875
0.0602806
0.0600746
0.0598697
0.0596656
0.0594626
0.0592605
0.0590593
0.0588591
0.0586598
0.0584615
0.0582641
0.0580676
0.057872
0.0576773
0.0574835
0.0572906
0.0570986
0.0569075
0.0567172
0.0565278
0.0563393
0.0561517
0.0559649
0.055779
0.0555939
0.0554096
0.0552262
0.0550436
0.0548618
0.0546809
0.0545008
0.0543214
0.0541429
0.0539652
0.0537883
0.0536121
0.0534367
0.0532622
0.0530884
0.0529153
0.0527431
0.0525715
0.0524008
0.0522308
0.0520615
0.051893
0.0517252
0.0515582
0.0513919
0.0512263
0.0510614
0.0508972
0.0507338
0.050571
0.050409
0.0502477
0.050087
0.049927
0.0497678
0.0496092
0.0494513
0.049294
0.0491375
0.0489816
0.0488263
0.0486717
0.0485178
0.0483645
0.0482119
0.0480599
0.0479085
0.0477578
0.0476077
0.0474583
0.0473094
0.0471612
0.0470136
0.0468666
0.0467202
0.0465745
0.0464293
0.0462847
0.0461408
0.0459974
0.0458546
0.0457124
0.0455708
0.0454297
0.0452893
0.0451494
0.04501
0.0448713
0.0447331
0.0445954
0.0444583
0.0443218
0.0441858
0.0440504
0.0439155
0.0437812
0.0436473
0.0435141
0.0433813
0.0432491
0.0431174
0.0429863
0.0428556
0.0427255
0.0425959
0.0424668
0.0423382
0.0422101
0.0420825
0.0419554
0.0418288
0.0417027
0.0415771
0.041452
0.0413274
0.0412033
0.0410796
0.0409564
0.0408337
0.0407115
0.0405898
0.0404685
0.0403477
0.0402273
0.0401074
0.039988
0.039869
0.0397505
0.0396324
0.0395148
0.0393976
0.0392809
0.0391646
0.0390487
0.0389333
0.0388184
0.0387038
0.0385897
0.038476
0.0383628
0.0382499
0.0381375
0.0380255
0.0379139
0.0378028
0.037692
0.0375817
0.0374718
0.0373622
0.0372531
0.0371444
0.0370361
0.0369282
0.0368207
0.0367135
0.0366068
0.0365005
0.0363945
0.036289
0.0361838
0.036079
0.0359746
0.0358705
0.0357669
0.0356636
0.0355607
0.0354581
0.0353559
0.0352541
0.0351527
0.0350516
0.0349509
0.0348505
0.0347506
0.0346509
0.0345516
0.0344527
0.0343541
0.0342559
0.034158
0.0340605
0.0339633
0.0338664
0.0337699
0.0336737
0.0335779
0.0334824
0.0333873
0.0332924
0.0331979
0.0331038
0.03301
0.0329164
0.0328233
0.0327304
0.0326379
0.0325456
0.0324537
0.0323622
0.0322709
0.0321799
0.0320893
0.031999
0.031909
0.0318193
0.0317299
0.0316408
0.031552
0.0314635
0.0313753
0.0312874
0.0311998
0.0311125
0.0310256
0.0309389
0.0308525
0.0307663
0.0306805
0.030595
0.0305097
0.0304248
0.0303401
0.0302557
0.0301716
0.0300878
0.0300042
0.029921
0.029838
0.0297553
0.0296728
0.0295907
0.0295088
0.0294272
0.0293458
0.0292648
0.0291839
0.0291034
0.0290231
0.0289431
0.0288634
0.0287839
0.0287046
0.0286257
0.028547
0.0284685
0.0283903
0.0283124
0.0282347
0.0281573
0.0280801
0.0280032
0.0279265
0.02785
0.0277739
0.0276979
0.0276222
0.0275468
0.0274716
0.0273966
0.0273219
0.0272474
0.0271732
0.0270992
0.0270254
0.0269519
0.0268786
0.0268056
0.0267327
0.0266602
0.0265878
0.0265157
0.0264438
0.0263721
0.0263007
0.0262295
0.0261585
0.0260877
0.0260172
0.0259469
0.0258768
0.0258069
0.0257373
0.0256678
0.0255986
0.0255296
0.0254608
0.0253923
0.0253239
0.0252558
0.0251879
0.0251202
0.0250527
0.0249854
0.0249184
0.0248515
0.0247849
0.0247184
0.0246522
0.0245862
0.0245203
0.0244547
0.0243893
0.0243241
0.0242591
0.0241943
0.0241297
0.0240653
0.0240011
0.0239371
0.0238733
0.0238096
0.0237462
0.023683
0.02362
0.0235572
0.0234945
0.0234321
0.0233698
0.0233078
0.0232459
0.0231842
0.0231227
0.0230614
0.0230003
0.0229394
0.0228787
0.0228181
0.0227578
0.0226976
0.0226376
0.0225778
0.0225181
0.0224587
0.0223994
0.0223404
0.0222815
0.0222227
0.0221642
0.0221058
0.0220476
0.0219896
0.0219318
0.0218741
0.0218167
0.0217594
0.0217022
0.0216453
0.0215885
0.0215319
0.0214754
0.0214192
0.0213631
0.0213071
0.0212514
0.0211958
0.0211404
0.0210851
0.0210301
0.0209751
0.0209204
0.0208658
0.0208114
0.0207572
0.0207031
0.0206492
0.0205954
0.0205418
0.0204884
0.0204351
0.020382
0.0203291
0.0202763
0.0202236
0.0201712
0.0201189
0.0200667
0.0200147
0.0199629
0.0199112
0.0198597
0.0198084
0.0197572
0.0197061
0.0196552
0.0196045
0.0195539
0.0195035
0.0194532
0.0194031
0.0193531
0.0193033
0.0192536
0.0192041
0.0191548
0.0191056
0.0190565
0.0190076
0.0189588
0.0189102
0.0188618
0.0188134
0.0187653
0.0187173
0.0186694
0.0186217
0.0185741
0.0185266
0.0184794
0.0184322
0.0183852
0.0183384
0.0182917
0.0182451
0.0181987
0.0181524
0.0181063
0.0180603
0.0180144
0.0179687
0.0179232
0.0178777
0.0178325
0.0177873
0.0177423
0.0176975
0.0176527
0.0176081
0.0175637
0.0175194
0.0174752
0.0174312
0.0173873
0.0173436
0.0173
0.0172565
0.0172131
0.0171699
0.0171269
0.0170839
0.0170411
0.0169985
0.016956
0.0169136
0.0168713
0.0168292
0.0167872
0.0167453
0.0167036
0.016662
0.0166206
0.0165793
0.0165381
0.016497
0.0164561
0.0164153
0.0163747
0.0163341
0.0162937
0.0162535
0.0162133
0.0161733
0.0161335
0.0160937
0.0160541
0.0160146
0.0159753
0.0159361
0.015897
0.015858
0.0158192
0.0157804
0.0157419
0.0157034
0.0156651
0.0156269
0.0155888
0.0155509
0.0155131
0.0154754
0.0154378
0.0154004
0.0153631
0.0153259
0.0152889
0.0152519
0.0152151
0.0151785
0.0151419
0.0151055
0.0150692
0.015033
0.014997
0.0149611
0.0149253
0.0148896
0.0148541
0.0148186
0.0147833
0.0147482
0.0147131
0.0146782
0.0146434
0.0146087
0.0145741
0.0145397
0.0145054
0.0144712
0.0144372
0.0144032
0.0143694
0.0143357
0.0143021
0.0142687
0.0142354
0.0142022
0.0141691
0.0141361
0.0141033
0.0140706
0.014038
0.0140055
0.0139732
0.0139409
0.0139088
0.0138769
0.013845
0.0138132
0.0137816
0.0137501
0.0137188
0.0136875
0.0136564
0.0136254
0.0135945
0.0135637
0.013533
0.0135025
0.0134721
0.0134418
0.0134116
0.0133816
0.0133517
0.0133219
0.0132922
0.0132626
0.0132332
0.0132038
0.0131746
0.0131455
0.0131166
0.0130877
0.013059
0.0130304
0.0130019
0.0129736
0.0129453
0.0129172
0.0128892
0.0128613
0.0128335
0.0128059
0.0127784
0.012751
0.0127237
0.0126965
0.0126695
0.0126425
0.0126157
0.012589
0.0125625
0.012536
0.0125097
0.0124835
0.0124574
0.0124314
0.0124056
0.0123798
0.0123542
0.0123287
0.0123034
0.0122781
0.012253
0.012228
0.0122031
0.0121783
0.0121537
0.0121291
0.0121047
0.0120804
0.0120562
0.0120322
0.0120083
0.0119844
0.0119607
0.0119372
0.0119137
0.0118904
0.0118672
0.0118441
0.0118211
0.0117982
0.0117755
0.0117529
0.0117304
0.011708
0.0116857
0.0116636
0.0116416
0.0116197
0.0115979
0.0115763
0.0115547
0.0115333
0.011512
0.0114908
0.0114698
0.0114488
0.011428
0.0114073
0.0113868
0.0113663
0.011346
0.0113258
0.0113057
0.0112857
0.0112658
0.0112461
0.0112265
0.011207
0.0111876
0.0111684
0.0111492
0.0111302
0.0111113
0.0110926
0.0110739
0.0110554
0.011037
0.0110187
0.0110005
0.0109825
0.0109646
0.0109468
0.0109291
0.0109115
0.0108941
0.0108768
0.0108596
0.0108425
0.0108255
0.0108087
0.010792
0.0107754
0.0107589
0.0107426
0.0107263
0.0107102
0.0106942
0.0106784
0.0106626
0.010647
0.0106315
0.0106161
0.0106008
0.0105857
0.0105707
0.0105558
0.010541
0.0105263
0.0105118
0.0104974
0.0104831
0.0104689
0.0104549
0.0104409
0.0104271
0.0104134
0.0103999
0.0103864
0.0103731
0.0103599
0.0103468
0.0103338
0.010321
0.0103083
0.0102957
0.0102832
0.0102708
0.0102586
0.0102465
0.0102345
0.0102226
0.0102108
0.0101992
0.0101877
0.0101763
0.010165
0.0101539
0.0101429
0.0101319
0.0101212
0.0101105
0.0100999
0.0100895
0.0100792
0.010069
0.0100589
0.010049
0.0100392
0.0100294
0.0100199
0.0100104
0.010001
0.00999181
0.00998269
0.0099737
0.00996483
0.00995608
0.00994744
0.00993893
0.00993053
0.00992226
0.0099141
0.00990606
0.00989814
0.00989034
0.00988265
0.00987509
0.00986764
0.00986031
0.0098531
0.00984601
0.00983904
0.00983218
0.00982544
0.00981882
0.00981231
0.00980592
0.00979965
0.0097935
0.00978746
0.00978154
0.00977574
0.00977005
0.00976448
0.00975902
0.00975368
0.00974846
0.00974335
0.00973836
0.00973348
0.00972872
0.00972408
0.00971954
0.00971513
0.00971082
0.00970663
0.00970256
0.0096986
0.00969475
0.00969102
0.0096874
0.00968389
0.0096805
0.00967722
0.00967405
0.00967099
0.00966805
0.00966522
0.0096625
0.00965989
0.00965739
0.00965501
0.00965273
0.00965057
0.00964851
0.00964657
0.00964474
0.00964301
0.0096414
0.0096399
0.0096385
0.00963721
0.00963604
0.00963497
0.009634
0.00963315
0.0096324
0.00963177
0.00963123
0.00963081
0.00963049
0.00963028
0.00963017
)
;

boundaryField
{
    bottom
    {
        type            calculated;
        value           uniform 0.5;
    }
    top
    {
        type            calculated;
        value           uniform 0.00963017;
    }
    walls
    {
        type            calculated;
        value           nonuniform List<scalar> 
6000
(
0.999997
0.999997
0.999997
0.999997
0.999996
0.999996
0.999995
0.999995
0.999994
0.999993
0.999992
0.999992
0.999991
0.99999
0.99999
0.999989
0.999988
0.999988
0.999987
0.999987
0.999986
0.999985
0.999985
0.999984
0.999984
0.999983
0.999982
0.999982
0.999981
0.99998
0.99998
0.999979
0.999979
0.999978
0.999977
0.999977
0.999976
0.999976
0.999975
0.999974
0.999974
0.999973
0.999973
0.999972
0.999971
0.999971
0.99997
0.999969
0.999969
0.999968
0.999968
0.999967
0.999966
0.999966
0.999965
0.999965
0.999964
0.999963
0.999963
0.999962
0.999962
0.999961
0.99996
0.99996
0.999959
0.999959
0.999958
0.999957
0.999957
0.999956
0.999955
0.999955
0.999954
0.999954
0.999953
0.999952
0.999952
0.999951
0.999951
0.99995
0.999949
0.999949
0.999948
0.999948
0.999947
0.999946
0.999946
0.999945
0.999945
0.999944
0.999943
0.999943
0.999942
0.999942
0.999941
0.99994
0.99994
0.999939
0.999938
0.999938
0.999937
0.999937
0.999936
0.999935
0.999935
0.999934
0.999934
0.999933
0.999932
0.999932
0.999931
0.999931
0.99993
0.999929
0.999929
0.999928
0.999928
0.999927
0.999926
0.999926
0.999925
0.999925
0.999924
0.999923
0.999923
0.999922
0.999922
0.999921
0.99992
0.99992
0.999919
0.999918
0.999918
0.999917
0.999917
0.999916
0.999915
0.999915
0.999914
0.999914
0.999913
0.999912
0.999912
0.999911
0.999911
0.99991
0.999909
0.999909
0.999908
0.999908
0.999907
0.999906
0.999906
0.999905
0.999905
0.999904
0.999903
0.999903
0.999902
0.999902
0.999901
0.9999
0.9999
0.999899
0.999899
0.999898
0.999897
0.999897
0.999896
0.999895
0.999895
0.999894
0.999894
0.999893
0.999892
0.999892
0.999891
0.999891
0.99989
0.999889
0.999889
0.999888
0.999888
0.999887
0.999886
0.999886
0.999885
0.999885
0.999884
0.999883
0.999883
0.999882
0.999882
0.999881
0.99988
0.99988
0.999879
0.999879
0.999878
0.999877
0.999877
0.999876
0.999876
0.999875
0.999874
0.999874
0.999873
0.999873
0.999872
0.999871
0.999871
0.99987
0.999869
0.999869
0.999868
0.999868
0.999867
0.999866
0.999866
0.999865
0.999865
0.999864
0.999863
0.999863
0.999862
0.999862
0.999861
0.99986
0.99986
0.999859
0.999859
0.999858
0.999857
0.999857
0.999856
0.999856
0.999855
0.999854
0.999854
0.999853
0.999853
0.99985
0.999577
0.987636
0.974765
0.962146
0.949773
0.937638
0.925735
0.914059
0.902603
0.891361
0.88033
0.869503
0.858875
0.848441
0.838198
0.828139
0.818261
0.808559
0.79903
0.789669
0.780471
0.771434
0.762554
0.753827
0.745249
0.736817
0.728528
0.720379
0.712366
0.704486
0.696737
0.689115
0.681619
0.674244
0.666989
0.65985
0.652826
0.645914
0.639111
0.632415
0.625825
0.619337
0.61295
0.606661
0.600469
0.594372
0.588367
0.582453
0.576628
0.57089
0.565238
0.559669
0.554182
0.548776
0.543449
0.538199
0.533025
0.527926
0.522899
0.517944
0.513059
0.508244
0.503496
0.498814
0.494197
0.489645
0.485155
0.480726
0.476358
0.47205
0.4678
0.463607
0.45947
0.455388
0.451361
0.447387
0.443465
0.439595
0.435775
0.432005
0.428284
0.42461
0.420984
0.417404
0.41387
0.41038
0.406934
0.403532
0.400172
0.396854
0.393577
0.390341
0.387144
0.383987
0.380868
0.377786
0.374743
0.371735
0.368764
0.365829
0.362928
0.360062
0.357229
0.35443
0.351663
0.348929
0.346227
0.343556
0.340916
0.338306
0.335726
0.333175
0.330653
0.32816
0.325695
0.323257
0.320847
0.318464
0.316107
0.313776
0.311471
0.309191
0.306936
0.304705
0.302499
0.300317
0.298158
0.296022
0.293909
0.291819
0.289751
0.287705
0.28568
0.283677
0.281694
0.279732
0.277791
0.27587
0.273968
0.272087
0.270224
0.26838
0.266556
0.264749
0.262961
0.261191
0.259439
0.257704
0.255987
0.254287
0.252603
0.250936
0.249286
0.247652
0.246033
0.244431
0.242844
0.241272
0.239716
0.238174
0.236647
0.235135
0.233638
0.232154
0.230685
0.229229
0.227787
0.226359
0.224943
0.223542
0.222153
0.220777
0.219413
0.218062
0.216724
0.215398
0.214084
0.212781
0.211491
0.210212
0.208945
0.207689
0.206444
0.205211
0.203988
0.202776
0.201575
0.200385
0.199205
0.198035
0.196875
0.195726
0.194587
0.193457
0.192337
0.191227
0.190126
0.189035
0.187953
0.18688
0.185817
0.184762
0.183716
0.182679
0.181651
0.180631
0.17962
0.178617
0.177623
0.176636
0.175658
0.174688
0.173726
0.172772
0.171825
0.170886
0.169955
0.169031
0.168115
0.167206
0.166304
0.16541
0.164522
0.163642
0.162769
0.161902
0.161043
0.16019
0.159344
0.158504
0.157671
0.156845
0.156025
0.155211
0.154404
0.153602
0.152807
0.152018
0.151235
0.150458
0.149687
0.148922
0.148162
0.147409
0.146661
0.145918
0.145181
0.14445
0.143724
0.143003
0.142288
0.141578
0.140873
0.140173
0.139479
0.138789
0.138105
0.137425
0.136751
0.136081
0.135416
0.134756
0.134101
0.133451
0.132805
0.132163
0.131527
0.130894
0.130266
0.129643
0.129024
0.12841
0.127799
0.127193
0.126591
0.125994
0.1254
0.124811
0.124225
0.123644
0.123067
0.122493
0.121924
0.121358
0.120797
0.120239
0.119685
0.119134
0.118588
0.118045
0.117505
0.11697
0.116438
0.115909
0.115384
0.114862
0.114344
0.113829
0.113318
0.11281
0.112305
0.111804
0.111306
0.110811
0.110319
0.109831
0.109346
0.108864
0.108384
0.107909
0.107436
0.106966
0.106499
0.106035
0.105574
0.105116
0.104661
0.104208
0.103759
0.103312
0.102868
0.102427
0.101989
0.101553
0.10112
0.10069
0.100263
0.0998377
0.0994154
0.0989957
0.0985786
0.098164
0.097752
0.0973424
0.0969354
0.0965308
0.0961287
0.095729
0.0953317
0.0949367
0.0945442
0.094154
0.0937661
0.0933806
0.0929973
0.0926163
0.0922376
0.0918611
0.0914868
0.0911147
0.0907448
0.0903771
0.0900115
0.0896481
0.0892868
0.0889276
0.0885704
0.0882153
0.0878623
0.0875113
0.0871623
0.0868154
0.0864704
0.0861274
0.0857863
0.0854472
0.08511
0.0847747
0.0844413
0.0841098
0.0837802
0.0834524
0.0831265
0.0828023
0.08248
0.0821595
0.0818408
0.0815238
0.0812086
0.0808952
0.0805835
0.0802734
0.0799651
0.0796585
0.0793536
0.0790503
0.0787487
0.0784487
0.0781504
0.0778536
0.0775585
0.077265
0.076973
0.0766827
0.0763938
0.0761066
0.0758208
0.0755366
0.0752539
0.0749727
0.074693
0.0744148
0.0741381
0.0738628
0.0735889
0.0733165
0.0730456
0.072776
0.0725078
0.0722411
0.0719757
0.0717118
0.0714491
0.0711879
0.070928
0.0706694
0.0704122
0.0701562
0.0699016
0.0696483
0.0693963
0.0691456
0.0688961
0.068648
0.068401
0.0681553
0.0679109
0.0676677
0.0674257
0.0671849
0.0669454
0.066707
0.0664698
0.0662338
0.065999
0.0657653
0.0655328
0.0653015
0.0650713
0.0648422
0.0646143
0.0643874
0.0641617
0.0639371
0.0637136
0.0634912
0.0632698
0.0630495
0.0628303
0.0626122
0.0623951
0.0621791
0.061964
0.0617501
0.0615371
0.0613252
0.0611143
0.0609044
0.0606954
0.0604875
0.0602806
0.0600746
0.0598697
0.0596656
0.0594626
0.0592605
0.0590593
0.0588591
0.0586598
0.0584615
0.0582641
0.0580676
0.057872
0.0576773
0.0574835
0.0572906
0.0570986
0.0569075
0.0567172
0.0565278
0.0563393
0.0561517
0.0559649
0.055779
0.0555939
0.0554096
0.0552262
0.0550436
0.0548618
0.0546809
0.0545008
0.0543214
0.0541429
0.0539652
0.0537883
0.0536121
0.0534367
0.0532622
0.0530884
0.0529153
0.0527431
0.0525715
0.0524008
0.0522308
0.0520615
0.051893
0.0517252
0.0515582
0.0513919
0.0512263
0.0510614
0.0508972
0.0507338
0.050571
0.050409
0.0502477
0.050087
0.049927
0.0497678
0.0496092
0.0494513
0.049294
0.0491375
0.0489816
0.0488263
0.0486717
0.0485178
0.0483645
0.0482119
0.0480599
0.0479085
0.0477578
0.0476077
0.0474583
0.0473094
0.0471612
0.0470136
0.0468666
0.0467202
0.0465745
0.0464293
0.0462847
0.0461408
0.0459974
0.0458546
0.0457124
0.0455708
0.0454297
0.0452893
0.0451494
0.04501
0.0448713
0.0447331
0.0445954
0.0444583
0.0443218
0.0441858
0.0440504
0.0439155
0.0437812
0.0436473
0.0435141
0.0433813
0.0432491
0.0431174
0.0429863
0.0428556
0.0427255
0.0425959
0.0424668
0.0423382
0.0422101
0.0420825
0.0419554
0.0418288
0.0417027
0.0415771
0.041452
0.0413274
0.0412033
0.0410796
0.0409564
0.0408337
0.0407115
0.0405898
0.0404685
0.0403477
0.0402273
0.0401074
0.039988
0.039869
0.0397505
0.0396324
0.0395148
0.0393976
0.0392809
0.0391646
0.0390487
0.0389333
0.0388184
0.0387038
0.0385897
0.038476
0.0383628
0.0382499
0.0381375
0.0380255
0.0379139
0.0378028
0.037692
0.0375817
0.0374718
0.0373622
0.0372531
0.0371444
0.0370361
0.0369282
0.0368207
0.0367135
0.0366068
0.0365005
0.0363945
0.036289
0.0361838
0.036079
0.0359746
0.0358705
0.0357669
0.0356636
0.0355607
0.0354581
0.0353559
0.0352541
0.0351527
0.0350516
0.0349509
0.0348505
0.0347506
0.0346509
0.0345516
0.0344527
0.0343541
0.0342559
0.034158
0.0340605
0.0339633
0.0338664
0.0337699
0.0336737
0.0335779
0.0334824
0.0333873
0.0332924
0.0331979
0.0331038
0.03301
0.0329164
0.0328233
0.0327304
0.0326379
0.0325456
0.0324537
0.0323622
0.0322709
0.0321799
0.0320893
0.031999
0.031909
0.0318193
0.0317299
0.0316408
0.031552
0.0314635
0.0313753
0.0312874
0.0311998
0.0311125
0.0310256
0.0309389
0.0308525
0.0307663
0.0306805
0.030595
0.0305097
0.0304248
0.0303401
0.0302557
0.0301716
0.0300878
0.0300042
0.029921
0.029838
0.0297553
0.0296728
0.0295907
0.0295088
0.0294272
0.0293458
0.0292648
0.0291839
0.0291034
0.0290231
0.0289431
0.0288634
0.0287839
0.0287046
0.0286257
0.028547
0.0284685
0.0283903
0.0283124
0.0282347
0.0281573
0.0280801
0.0280032
0.0279265
0.02785
0.0277739
0.0276979
0.0276222
0.0275468
0.0274716
0.0273966
0.0273219
0.0272474
0.0271732
0.0270992
0.0270254
0.0269519
0.0268786
0.0268056
0.0267327
0.0266602
0.0265878
0.0265157
0.0264438
0.0263721
0.0263007
0.0262295
0.0261585
0.0260877
0.0260172
0.0259469
0.0258768
0.0258069
0.0257373
0.0256678
0.0255986
0.0255296
0.0254608
0.0253923
0.0253239
0.0252558
0.0251879
0.0251202
0.0250527
0.0249854
0.0249184
0.0248515
0.0247849
0.0247184
0.0246522
0.0245862
0.0245203
0.0244547
0.0243893
0.0243241
0.0242591
0.0241943
0.0241297
0.0240653
0.0240011
0.0239371
0.0238733
0.0238096
0.0237462
0.023683
0.02362
0.0235572
0.0234945
0.0234321
0.0233698
0.0233078
0.0232459
0.0231842
0.0231227
0.0230614
0.0230003
0.0229394
0.0228787
0.0228181
0.0227578
0.0226976
0.0226376
0.0225778
0.0225181
0.0224587
0.0223994
0.0223404
0.0222815
0.0222227
0.0221642
0.0221058
0.0220476
0.0219896
0.0219318
0.0218741
0.0218167
0.0217594
0.0217022
0.0216453
0.0215885
0.0215319
0.0214754
0.0214192
0.0213631
0.0213071
0.0212514
0.0211958
0.0211404
0.0210851
0.0210301
0.0209751
0.0209204
0.0208658
0.0208114
0.0207572
0.0207031
0.0206492
0.0205954
0.0205418
0.0204884
0.0204351
0.020382
0.0203291
0.0202763
0.0202236
0.0201712
0.0201189
0.0200667
0.0200147
0.0199629
0.0199112
0.0198597
0.0198084
0.0197572
0.0197061
0.0196552
0.0196045
0.0195539
0.0195035
0.0194532
0.0194031
0.0193531
0.0193033
0.0192536
0.0192041
0.0191548
0.0191056
0.0190565
0.0190076
0.0189588
0.0189102
0.0188618
0.0188134
0.0187653
0.0187173
0.0186694
0.0186217
0.0185741
0.0185266
0.0184794
0.0184322
0.0183852
0.0183384
0.0182917
0.0182451
0.0181987
0.0181524
0.0181063
0.0180603
0.0180144
0.0179687
0.0179232
0.0178777
0.0178325
0.0177873
0.0177423
0.0176975
0.0176527
0.0176081
0.0175637
0.0175194
0.0174752
0.0174312
0.0173873
0.0173436
0.0173
0.0172565
0.0172131
0.0171699
0.0171269
0.0170839
0.0170411
0.0169985
0.016956
0.0169136
0.0168713
0.0168292
0.0167872
0.0167453
0.0167036
0.016662
0.0166206
0.0165793
0.0165381
0.016497
0.0164561
0.0164153
0.0163747
0.0163341
0.0162937
0.0162535
0.0162133
0.0161733
0.0161335
0.0160937
0.0160541
0.0160146
0.0159753
0.0159361
0.015897
0.015858
0.0158192
0.0157804
0.0157419
0.0157034
0.0156651
0.0156269
0.0155888
0.0155509
0.0155131
0.0154754
0.0154378
0.0154004
0.0153631
0.0153259
0.0152889
0.0152519
0.0152151
0.0151785
0.0151419
0.0151055
0.0150692
0.015033
0.014997
0.0149611
0.0149253
0.0148896
0.0148541
0.0148186
0.0147833
0.0147482
0.0147131
0.0146782
0.0146434
0.0146087
0.0145741
0.0145397
0.0145054
0.0144712
0.0144372
0.0144032
0.0143694
0.0143357
0.0143021
0.0142687
0.0142354
0.0142022
0.0141691
0.0141361
0.0141033
0.0140706
0.014038
0.0140055
0.0139732
0.0139409
0.0139088
0.0138769
0.013845
0.0138132
0.0137816
0.0137501
0.0137188
0.0136875
0.0136564
0.0136254
0.0135945
0.0135637
0.013533
0.0135025
0.0134721
0.0134418
0.0134116
0.0133816
0.0133517
0.0133219
0.0132922
0.0132626
0.0132332
0.0132038
0.0131746
0.0131455
0.0131166
0.0130877
0.013059
0.0130304
0.0130019
0.0129736
0.0129453
0.0129172
0.0128892
0.0128613
0.0128335
0.0128059
0.0127784
0.012751
0.0127237
0.0126965
0.0126695
0.0126425
0.0126157
0.012589
0.0125625
0.012536
0.0125097
0.0124835
0.0124574
0.0124314
0.0124056
0.0123798
0.0123542
0.0123287
0.0123034
0.0122781
0.012253
0.012228
0.0122031
0.0121783
0.0121537
0.0121291
0.0121047
0.0120804
0.0120562
0.0120322
0.0120083
0.0119844
0.0119607
0.0119372
0.0119137
0.0118904
0.0118672
0.0118441
0.0118211
0.0117982
0.0117755
0.0117529
0.0117304
0.011708
0.0116857
0.0116636
0.0116416
0.0116197
0.0115979
0.0115763
0.0115547
0.0115333
0.011512
0.0114908
0.0114698
0.0114488
0.011428
0.0114073
0.0113868
0.0113663
0.011346
0.0113258
0.0113057
0.0112857
0.0112658
0.0112461
0.0112265
0.011207
0.0111876
0.0111684
0.0111492
0.0111302
0.0111113
0.0110926
0.0110739
0.0110554
0.011037
0.0110187
0.0110005
0.0109825
0.0109646
0.0109468
0.0109291
0.0109115
0.0108941
0.0108768
0.0108596
0.0108425
0.0108255
0.0108087
0.010792
0.0107754
0.0107589
0.0107426
0.0107263
0.0107102
0.0106942
0.0106784
0.0106626
0.010647
0.0106315
0.0106161
0.0106008
0.0105857
0.0105707
0.0105558
0.010541
0.0105263
0.0105118
0.0104974
0.0104831
0.0104689
0.0104549
0.0104409
0.0104271
0.0104134
0.0103999
0.0103864
0.0103731
0.0103599
0.0103468
0.0103338
0.010321
0.0103083
0.0102957
0.0102832
0.0102708
0.0102586
0.0102465
0.0102345
0.0102226
0.0102108
0.0101992
0.0101877
0.0101763
0.010165
0.0101539
0.0101429
0.0101319
0.0101212
0.0101105
0.0100999
0.0100895
0.0100792
0.010069
0.0100589
0.010049
0.0100392
0.0100294
0.0100199
0.0100104
0.010001
0.00999181
0.00998269
0.0099737
0.00996483
0.00995608
0.00994744
0.00993893
0.00993053
0.00992226
0.0099141
0.00990606
0.00989814
0.00989034
0.00988265
0.00987509
0.00986764
0.00986031
0.0098531
0.00984601
0.00983904
0.00983218
0.00982544
0.00981882
0.00981231
0.00980592
0.00979965
0.0097935
0.00978746
0.00978154
0.00977574
0.00977005
0.00976448
0.00975902
0.00975368
0.00974846
0.00974335
0.00973836
0.00973348
0.00972872
0.00972408
0.00971954
0.00971513
0.00971082
0.00970663
0.00970256
0.0096986
0.00969475
0.00969102
0.0096874
0.00968389
0.0096805
0.00967722
0.00967405
0.00967099
0.00966805
0.00966522
0.0096625
0.00965989
0.00965739
0.00965501
0.00965273
0.00965057
0.00964851
0.00964657
0.00964474
0.00964301
0.0096414
0.0096399
0.0096385
0.00963721
0.00963604
0.00963497
0.009634
0.00963315
0.0096324
0.00963177
0.00963123
0.00963081
0.00963049
0.00963028
0.00963017
0.999997
0.999997
0.999997
0.999997
0.999996
0.999996
0.999995
0.999995
0.999994
0.999993