/*--------------------------------*- C++ -*----------------------------------*\
| =========                 |                                                 |
| \\      /  F ield         | foam-extend: Open Source CFD                    |
|  \\    /   O peration     | Version:     5.0                                |
|   \\  /    A nd           | Web:         http://www.foam-extend.org         |
|    \\/     M anipulation  |                                                 |
\*---------------------------------------------------------------------------*/
FoamFile
{
    version     2.0;
    format      ascii;
    class       volVectorField;
    location    "20000";
    object      U.gas;
}
// * * * * * * * * * * * * * * * * * * * * * * * * * * * * * * * * * * * * * //

dimensions      [0 1 -1 0 0 0 0];

internalField   nonuniform List<vector> 
1500
(
(0 1.44396e-09 0)
(0 5.6734e-09 0)
(0 1.24015e-08 0)
(0 2.15033e-08 0)
(0 3.34277e-08 0)
(0 4.96924e-08 0)
(0 7.51311e-08 0)
(0 1.16529e-07 0)
(0 1.48444e-07 0)
(0 1.73178e-07 0)
(0 1.94398e-07 0)
(0 2.13934e-07 0)
(0 2.32591e-07 0)
(0 2.50745e-07 0)
(0 2.68589e-07 0)
(0 2.86231e-07 0)
(0 3.03736e-07 0)
(0 3.21145e-07 0)
(0 3.38482e-07 0)
(0 3.55764e-07 0)
(0 3.73005e-07 0)
(0 3.90212e-07 0)
(0 4.07392e-07 0)
(0 4.24548e-07 0)
(0 4.41685e-07 0)
(0 4.58805e-07 0)
(0 4.7591e-07 0)
(0 4.93002e-07 0)
(0 5.10082e-07 0)
(0 5.27152e-07 0)
(0 5.44212e-07 0)
(0 5.61263e-07 0)
(0 5.78306e-07 0)
(0 5.95342e-07 0)
(0 6.1237e-07 0)
(0 6.29392e-07 0)
(0 6.46408e-07 0)
(0 6.63418e-07 0)
(0 6.80422e-07 0)
(0 6.97421e-07 0)
(0 7.14416e-07 0)
(0 7.31405e-07 0)
(0 7.48391e-07 0)
(0 7.65372e-07 0)
(0 7.82349e-07 0)
(0 7.99322e-07 0)
(0 8.16291e-07 0)
(0 8.33257e-07 0)
(0 8.50219e-07 0)
(0 8.67179e-07 0)
(0 8.84135e-07 0)
(0 9.01088e-07 0)
(0 9.18038e-07 0)
(0 9.34985e-07 0)
(0 9.5193e-07 0)
(0 9.68872e-07 0)
(0 9.85812e-07 0)
(0 1.00275e-06 0)
(0 1.01968e-06 0)
(0 1.03662e-06 0)
(0 1.05355e-06 0)
(0 1.07047e-06 0)
(0 1.0874e-06 0)
(0 1.10433e-06 0)
(0 1.12125e-06 0)
(0 1.13817e-06 0)
(0 1.15509e-06 0)
(0 1.172e-06 0)
(0 1.18892e-06 0)
(0 1.20583e-06 0)
(0 1.22274e-06 0)
(0 1.23965e-06 0)
(0 1.25656e-06 0)
(0 1.27347e-06 0)
(0 1.29038e-06 0)
(0 1.30728e-06 0)
(0 1.32418e-06 0)
(0 1.34108e-06 0)
(0 1.35798e-06 0)
(0 1.37488e-06 0)
(0 1.39178e-06 0)
(0 1.40868e-06 0)
(0 1.42557e-06 0)
(0 1.44247e-06 0)
(0 1.45936e-06 0)
(0 1.47625e-06 0)
(0 1.49314e-06 0)
(0 1.51003e-06 0)
(0 1.52692e-06 0)
(0 1.54381e-06 0)
(0 1.5607e-06 0)
(0 1.57758e-06 0)
(0 1.59447e-06 0)
(0 1.61135e-06 0)
(0 1.62823e-06 0)
(0 1.64512e-06 0)
(0 1.662e-06 0)
(0 1.67888e-06 0)
(0 1.69576e-06 0)
(0 1.71264e-06 0)
(0 1.72951e-06 0)
(0 1.74639e-06 0)
(0 1.76327e-06 0)
(0 1.78014e-06 0)
(0 1.79702e-06 0)
(0 1.81389e-06 0)
(0 1.83077e-06 0)
(0 1.84764e-06 0)
(0 1.86451e-06 0)
(0 1.88138e-06 0)
(0 1.89825e-06 0)
(0 1.91512e-06 0)
(0 1.93199e-06 0)
(0 1.94886e-06 0)
(0 1.96573e-06 0)
(0 1.9826e-06 0)
(0 1.99946e-06 0)
(0 2.01633e-06 0)
(0 2.0332e-06 0)
(0 2.05006e-06 0)
(0 2.06693e-06 0)
(0 2.08379e-06 0)
(0 2.10065e-06 0)
(0 2.11752e-06 0)
(0 2.13438e-06 0)
(0 2.15124e-06 0)
(0 2.1681e-06 0)
(0 2.18496e-06 0)
(0 2.20182e-06 0)
(0 2.21868e-06 0)
(0 2.23554e-06 0)
(0 2.2524e-06 0)
(0 2.26926e-06 0)
(0 2.28612e-06 0)
(0 2.30298e-06 0)
(0 2.31983e-06 0)
(0 2.33669e-06 0)
(0 2.35355e-06 0)
(0 2.3704e-06 0)
(0 2.38726e-06 0)
(0 2.40411e-06 0)
(0 2.42097e-06 0)
(0 2.43782e-06 0)
(0 2.45468e-06 0)
(0 2.47153e-06 0)
(0 2.48838e-06 0)
(0 2.50524e-06 0)
(0 2.52209e-06 0)
(0 2.53894e-06 0)
(0 2.55579e-06 0)
(0 2.57264e-06 0)
(0 2.58949e-06 0)
(0 2.60634e-06 0)
(0 2.6232e-06 0)
(0 2.64004e-06 0)
(0 2.65689e-06 0)
(0 2.67374e-06 0)
(0 2.69059e-06 0)
(0 2.70744e-06 0)
(0 2.72429e-06 0)
(0 2.74114e-06 0)
(0 2.75798e-06 0)
(0 2.77483e-06 0)
(0 2.79168e-06 0)
(0 2.80853e-06 0)
(0 2.82537e-06 0)
(0 2.84222e-06 0)
(0 2.85906e-06 0)
(0 2.87591e-06 0)
(0 2.89275e-06 0)
(0 2.9096e-06 0)
(0 2.92644e-06 0)
(0 2.94329e-06 0)
(0 2.96013e-06 0)
(0 2.97698e-06 0)
(0 2.99382e-06 0)
(0 3.01066e-06 0)
(0 3.02751e-06 0)
(0 3.04435e-06 0)
(0 3.06119e-06 0)
(0 3.07803e-06 0)
(0 3.09487e-06 0)
(0 3.11172e-06 0)
(0 3.12856e-06 0)
(0 3.1454e-06 0)
(0 3.16224e-06 0)
(0 3.17908e-06 0)
(0 3.19592e-06 0)
(0 3.21276e-06 0)
(0 3.2296e-06 0)
(0 3.24644e-06 0)
(0 3.26328e-06 0)
(0 3.28012e-06 0)
(0 3.29696e-06 0)
(0 3.3138e-06 0)
(0 3.33064e-06 0)
(0 3.34748e-06 0)
(0 3.36432e-06 0)
(0 3.38115e-06 0)
(0 3.39799e-06 0)
(0 3.41483e-06 0)
(0 3.43167e-06 0)
(0 3.4485e-06 0)
(0 3.46534e-06 0)
(0 3.48218e-06 0)
(0 3.49901e-06 0)
(0 3.51585e-06 0)
(0 3.53269e-06 0)
(0 3.54952e-06 0)
(0 3.56636e-06 0)
(0 3.5832e-06 0)
(0 3.60003e-06 0)
(0 3.61687e-06 0)
(0 3.6337e-06 0)
(0 3.65054e-06 0)
(0 3.66737e-06 0)
(0 3.68421e-06 0)
(0 3.70104e-06 0)
(0 3.71788e-06 0)
(0 3.73471e-06 0)
(0 3.75154e-06 0)
(0 3.76838e-06 0)
(0 3.78521e-06 0)
(0 3.80205e-06 0)
(0 3.81888e-06 0)
(0 3.83571e-06 0)
(0 3.85254e-06 0)
(0 3.86938e-06 0)
(0 3.88621e-06 0)
(0 3.90304e-06 0)
(0 3.91988e-06 0)
(0 3.93671e-06 0)
(0 3.95354e-06 0)
(0 3.97037e-06 0)
(0 3.9872e-06 0)
(0 4.00404e-06 0)
(0 4.02087e-06 0)
(0 4.0377e-06 0)
(0 4.05453e-06 0)
(0 4.07136e-06 0)
(0 4.08796e-06 0)
(0 4.06192e-06 0)
(0 1.24044e-06 0)
(0 -3.39899e-08 0)
(0 -8.41275e-08 0)
(0 -1.00178e-07 0)
(0 -1.08084e-07 0)
(0 -1.1279e-07 0)
(0 -1.15912e-07 0)
(0 -1.18133e-07 0)
(0 -1.19794e-07 0)
(0 -1.21083e-07 0)
(0 -1.22112e-07 0)
(0 -1.22953e-07 0)
(0 -1.23653e-07 0)
(0 -1.24244e-07 0)
(0 -1.2475e-07 0)
(0 -1.25189e-07 0)
(0 -1.25571e-07 0)
(0 -1.25908e-07 0)
(0 -1.26208e-07 0)
(0 -1.26476e-07 0)
(0 -1.26717e-07 0)
(0 -1.26934e-07 0)
(0 -1.27131e-07 0)
(0 -1.27311e-07 0)
(0 -1.27475e-07 0)
(0 -1.27626e-07 0)
(0 -1.27765e-07 0)
(0 -1.27894e-07 0)
(0 -1.28013e-07 0)
(0 -1.28124e-07 0)
(0 -1.28227e-07 0)
(0 -1.28324e-07 0)
(0 -1.28414e-07 0)
(0 -1.28499e-07 0)
(0 -1.28578e-07 0)
(0 -1.28653e-07 0)
(0 -1.28723e-07 0)
(0 -1.2879e-07 0)
(0 -1.28852e-07 0)
(0 -1.28912e-07 0)
(0 -1.28968e-07 0)
(0 -1.29021e-07 0)
(0 -1.29072e-07 0)
(0 -1.29119e-07 0)
(0 -1.29165e-07 0)
(0 -1.29207e-07 0)
(0 -1.29249e-07 0)
(0 -1.29289e-07 0)
(0 -1.29326e-07 0)
(0 -1.29363e-07 0)
(0 -1.29397e-07 0)
(0 -1.2943e-07 0)
(0 -1.29462e-07 0)
(0 -1.29493e-07 0)
(0 -1.29522e-07 0)
(0 -1.2955e-07 0)
(0 -1.29575e-07 0)
(0 -1.296e-07 0)
(0 -1.29624e-07 0)
(0 -1.29647e-07 0)
(0 -1.29669e-07 0)
(0 -1.29691e-07 0)
(0 -1.29711e-07 0)
(0 -1.29732e-07 0)
(0 -1.29751e-07 0)
(0 -1.29768e-07 0)
(0 -1.29785e-07 0)
(0 -1.29801e-07 0)
(0 -1.29816e-07 0)
(0 -1.29831e-07 0)
(0 -1.29846e-07 0)
(0 -1.2986e-07 0)
(0 -1.29874e-07 0)
(0 -1.29887e-07 0)
(0 -1.29898e-07 0)
(0 -1.2991e-07 0)
(0 -1.29922e-07 0)
(0 -1.29933e-07 0)
(0 -1.29943e-07 0)
(0 -1.29954e-07 0)
(0 -1.29964e-07 0)
(0 -1.29973e-07 0)
(0 -1.29981e-07 0)
(0 -1.2999e-07 0)
(0 -1.29999e-07 0)
(0 -1.30006e-07 0)
(0 -1.30013e-07 0)
(0 -1.3002e-07 0)
(0 -1.30027e-07 0)
(0 -1.30033e-07 0)
(0 -1.30039e-07 0)
(0 -1.30044e-07 0)
(0 -1.3005e-07 0)
(0 -1.30055e-07 0)
(0 -1.3006e-07 0)
(0 -1.30064e-07 0)
(0 -1.30066e-07 0)
(0 -1.30069e-07 0)
(0 -1.30073e-07 0)
(0 -1.30075e-07 0)
(0 -1.30079e-07 0)
(0 -1.30082e-07 0)
(0 -1.30085e-07 0)
(0 -1.30087e-07 0)
(0 -1.3009e-07 0)
(0 -1.30091e-07 0)
(0 -1.30092e-07 0)
(0 -1.30094e-07 0)
(0 -1.30095e-07 0)
(0 -1.30096e-07 0)
(0 -1.30097e-07 0)
(0 -1.30098e-07 0)
(0 -1.30098e-07 0)
(0 -1.30099e-07 0)
(0 -1.30098e-07 0)
(0 -1.30098e-07 0)
(0 -1.30098e-07 0)
(0 -1.30098e-07 0)
(0 -1.30097e-07 0)
(0 -1.30096e-07 0)
(0 -1.30094e-07 0)
(0 -1.30091e-07 0)
(0 -1.3009e-07 0)
(0 -1.30089e-07 0)
(0 -1.30088e-07 0)
(0 -1.30085e-07 0)
(0 -1.30082e-07 0)
(0 -1.3008e-07 0)
(0 -1.30078e-07 0)
(0 -1.30076e-07 0)
(0 -1.30074e-07 0)
(0 -1.3007e-07 0)
(0 -1.30067e-07 0)
(0 -1.30064e-07 0)
(0 -1.3006e-07 0)
(0 -1.30054e-07 0)
(0 -1.3005e-07 0)
(0 -1.30045e-07 0)
(0 -1.30042e-07 0)
(0 -1.30039e-07 0)
(0 -1.30033e-07 0)
(0 -1.30028e-07 0)
(0 -1.30024e-07 0)
(0 -1.30018e-07 0)
(0 -1.30012e-07 0)
(0 -1.30006e-07 0)
(0 -1.30001e-07 0)
(0 -1.29996e-07 0)
(0 -1.2999e-07 0)
(0 -1.29984e-07 0)
(0 -1.29979e-07 0)
(0 -1.29973e-07 0)
(0 -1.29966e-07 0)
(0 -1.29959e-07 0)
(0 -1.29953e-07 0)
(0 -1.29946e-07 0)
(0 -1.29938e-07 0)
(0 -1.29932e-07 0)
(0 -1.29925e-07 0)
(0 -1.29918e-07 0)
(0 -1.29911e-07 0)
(0 -1.29905e-07 0)
(0 -1.29898e-07 0)
(0 -1.29891e-07 0)
(0 -1.29885e-07 0)
(0 -1.29877e-07 0)
(0 -1.29868e-07 0)
(0 -1.29859e-07 0)
(0 -1.29849e-07 0)
(0 -1.2984e-07 0)
(0 -1.29831e-07 0)
(0 -1.29822e-07 0)
(0 -1.29813e-07 0)
(0 -1.29804e-07 0)
(0 -1.29796e-07 0)
(0 -1.29787e-07 0)
(0 -1.29779e-07 0)
(0 -1.2977e-07 0)
(0 -1.29761e-07 0)
(0 -1.29751e-07 0)
(0 -1.29741e-07 0)
(0 -1.29732e-07 0)
(0 -1.29723e-07 0)
(0 -1.29712e-07 0)
(0 -1.29702e-07 0)
(0 -1.29692e-07 0)
(0 -1.29681e-07 0)
(0 -1.29669e-07 0)
(0 -1.29659e-07 0)
(0 -1.29649e-07 0)
(0 -1.29638e-07 0)
(0 -1.29626e-07 0)
(0 -1.29614e-07 0)
(0 -1.29603e-07 0)
(0 -1.29591e-07 0)
(0 -1.2958e-07 0)
(0 -1.29568e-07 0)
(0 -1.29556e-07 0)
(0 -1.29544e-07 0)
(0 -1.29533e-07 0)
(0 -1.29521e-07 0)
(0 -1.29508e-07 0)
(0 -1.29495e-07 0)
(0 -1.29483e-07 0)
(0 -1.2947e-07 0)
(0 -1.29457e-07 0)
(0 -1.29444e-07 0)
(0 -1.29431e-07 0)
(0 -1.29418e-07 0)
(0 -1.29404e-07 0)
(0 -1.2939e-07 0)
(0 -1.29375e-07 0)
(0 -1.29361e-07 0)
(0 -1.29346e-07 0)
(0 -1.29331e-07 0)
(0 -1.29317e-07 0)
(0 -1.29302e-07 0)
(0 -1.29287e-07 0)
(0 -1.29271e-07 0)
(0 -1.29257e-07 0)
(0 -1.29242e-07 0)
(0 -1.29227e-07 0)
(0 -1.29211e-07 0)
(0 -1.29195e-07 0)
(0 -1.29179e-07 0)
(0 -1.29163e-07 0)
(0 -1.29147e-07 0)
(0 -1.2913e-07 0)
(0 -1.29114e-07 0)
(0 -1.29098e-07 0)
(0 -1.29082e-07 0)
(0 -1.29066e-07 0)
(0 -1.29049e-07 0)
(0 -1.29033e-07 0)
(0 -1.29015e-07 0)
(0 -1.28999e-07 0)
(0 -1.28982e-07 0)
(0 -1.28964e-07 0)
(0 -1.28946e-07 0)
(0 -1.28929e-07 0)
(0 -1.28911e-07 0)
(0 -1.28893e-07 0)
(0 -1.28875e-07 0)
(0 -1.28858e-07 0)
(0 -1.2884e-07 0)
(0 -1.28822e-07 0)
(0 -1.28803e-07 0)
(0 -1.28785e-07 0)
(0 -1.28768e-07 0)
(0 -1.2875e-07 0)
(0 -1.28731e-07 0)
(0 -1.28711e-07 0)
(0 -1.2869e-07 0)
(0 -1.28671e-07 0)
(0 -1.28651e-07 0)
(0 -1.28632e-07 0)
(0 -1.28613e-07 0)
(0 -1.28594e-07 0)
(0 -1.28574e-07 0)
(0 -1.28555e-07 0)
(0 -1.28534e-07 0)
(0 -1.28513e-07 0)
(0 -1.28492e-07 0)
(0 -1.28472e-07 0)
(0 -1.28451e-07 0)
(0 -1.2843e-07 0)
(0 -1.28409e-07 0)
(0 -1.28387e-07 0)
(0 -1.28365e-07 0)
(0 -1.28343e-07 0)
(0 -1.28322e-07 0)
(0 -1.28301e-07 0)
(0 -1.28279e-07 0)
(0 -1.28257e-07 0)
(0 -1.28235e-07 0)
(0 -1.28213e-07 0)
(0 -1.2819e-07 0)
(0 -1.28169e-07 0)
(0 -1.28146e-07 0)
(0 -1.28122e-07 0)
(0 -1.28097e-07 0)
(0 -1.28074e-07 0)
(0 -1.28052e-07 0)
(0 -1.2803e-07 0)
(0 -1.28005e-07 0)
(0 -1.2798e-07 0)
(0 -1.27957e-07 0)
(0 -1.27934e-07 0)
(0 -1.27909e-07 0)
(0 -1.27885e-07 0)
(0 -1.27862e-07 0)
(0 -1.27836e-07 0)
(0 -1.27812e-07 0)
(0 -1.27787e-07 0)
(0 -1.27762e-07 0)
(0 -1.27737e-07 0)
(0 -1.2771e-07 0)
(0 -1.27684e-07 0)
(0 -1.27657e-07 0)
(0 -1.27631e-07 0)
(0 -1.27605e-07 0)
(0 -1.2758e-07 0)
(0 -1.27554e-07 0)
(0 -1.27527e-07 0)
(0 -1.275e-07 0)
(0 -1.27473e-07 0)
(0 -1.27446e-07 0)
(0 -1.27419e-07 0)
(0 -1.27392e-07 0)
(0 -1.27366e-07 0)
(0 -1.27339e-07 0)
(0 -1.27311e-07 0)
(0 -1.27282e-07 0)
(0 -1.27253e-07 0)
(0 -1.27225e-07 0)
(0 -1.27197e-07 0)
(0 -1.2717e-07 0)
(0 -1.27143e-07 0)
(0 -1.27113e-07 0)
(0 -1.27083e-07 0)
(0 -1.27056e-07 0)
(0 -1.27028e-07 0)
(0 -1.26999e-07 0)
(0 -1.26968e-07 0)
(0 -1.26939e-07 0)
(0 -1.2691e-07 0)
(0 -1.2688e-07 0)
(0 -1.2685e-07 0)
(0 -1.2682e-07 0)
(0 -1.26791e-07 0)
(0 -1.26761e-07 0)
(0 -1.2673e-07 0)
(0 -1.267e-07 0)
(0 -1.26668e-07 0)
(0 -1.26637e-07 0)
(0 -1.26607e-07 0)
(0 -1.26576e-07 0)
(0 -1.26545e-07 0)
(0 -1.26515e-07 0)
(0 -1.26484e-07 0)
(0 -1.26451e-07 0)
(0 -1.26419e-07 0)
(0 -1.26388e-07 0)
(0 -1.26357e-07 0)
(0 -1.26325e-07 0)
(0 -1.26291e-07 0)
(0 -1.26257e-07 0)
(0 -1.26224e-07 0)
(0 -1.26191e-07 0)
(0 -1.26158e-07 0)
(0 -1.26124e-07 0)
(0 -1.26092e-07 0)
(0 -1.26059e-07 0)
(0 -1.26025e-07 0)
(0 -1.25992e-07 0)
(0 -1.25957e-07 0)
(0 -1.25923e-07 0)
(0 -1.2589e-07 0)
(0 -1.25855e-07 0)
(0 -1.25819e-07 0)
(0 -1.25784e-07 0)
(0 -1.25749e-07 0)
(0 -1.25713e-07 0)
(0 -1.25678e-07 0)
(0 -1.25641e-07 0)
(0 -1.25604e-07 0)
(0 -1.25567e-07 0)
(0 -1.2553e-07 0)
(0 -1.25495e-07 0)
(0 -1.2546e-07 0)
(0 -1.25423e-07 0)
(0 -1.25385e-07 0)
(0 -1.25348e-07 0)
(0 -1.25312e-07 0)
(0 -1.25275e-07 0)
(0 -1.25237e-07 0)
(0 -1.25198e-07 0)
(0 -1.2516e-07 0)
(0 -1.25121e-07 0)
(0 -1.25082e-07 0)
(0 -1.25043e-07 0)
(0 -1.25003e-07 0)
(0 -1.24964e-07 0)
(0 -1.24927e-07 0)
(0 -1.24889e-07 0)
(0 -1.24851e-07 0)
(0 -1.24811e-07 0)
(0 -1.24772e-07 0)
(0 -1.24733e-07 0)
(0 -1.24692e-07 0)
(0 -1.24651e-07 0)
(0 -1.2461e-07 0)
(0 -1.24569e-07 0)
(0 -1.24528e-07 0)
(0 -1.24487e-07 0)
(0 -1.24446e-07 0)
(0 -1.24405e-07 0)
(0 -1.24363e-07 0)
(0 -1.2432e-07 0)
(0 -1.24278e-07 0)
(0 -1.24236e-07 0)
(0 -1.24193e-07 0)
(0 -1.2415e-07 0)
(0 -1.24107e-07 0)
(0 -1.24064e-07 0)
(0 -1.2402e-07 0)
(0 -1.23976e-07 0)
(0 -1.23932e-07 0)
(0 -1.23888e-07 0)
(0 -1.23844e-07 0)
(0 -1.238e-07 0)
(0 -1.23754e-07 0)
(0 -1.2371e-07 0)
(0 -1.23666e-07 0)
(0 -1.23621e-07 0)
(0 -1.23576e-07 0)
(0 -1.23532e-07 0)
(0 -1.23487e-07 0)
(0 -1.23442e-07 0)
(0 -1.23395e-07 0)
(0 -1.2335e-07 0)
(0 -1.23305e-07 0)
(0 -1.23258e-07 0)
(0 -1.23211e-07 0)
(0 -1.23164e-07 0)
(0 -1.23118e-07 0)
(0 -1.23071e-07 0)
(0 -1.23022e-07 0)
(0 -1.22975e-07 0)
(0 -1.22928e-07 0)
(0 -1.2288e-07 0)
(0 -1.22833e-07 0)
(0 -1.22786e-07 0)
(0 -1.22737e-07 0)
(0 -1.22687e-07 0)
(0 -1.2264e-07 0)
(0 -1.22592e-07 0)
(0 -1.22543e-07 0)
(0 -1.22495e-07 0)
(0 -1.22446e-07 0)
(0 -1.22396e-07 0)
(0 -1.22346e-07 0)
(0 -1.22297e-07 0)
(0 -1.22246e-07 0)
(0 -1.22194e-07 0)
(0 -1.22145e-07 0)
(0 -1.22096e-07 0)
(0 -1.22045e-07 0)
(0 -1.21993e-07 0)
(0 -1.21942e-07 0)
(0 -1.21891e-07 0)
(0 -1.2184e-07 0)
(0 -1.21787e-07 0)
(0 -1.21734e-07 0)
(0 -1.21682e-07 0)
(0 -1.21629e-07 0)
(0 -1.21576e-07 0)
(0 -1.21523e-07 0)
(0 -1.2147e-07 0)
(0 -1.21415e-07 0)
(0 -1.21362e-07 0)
(0 -1.21308e-07 0)
(0 -1.21253e-07 0)
(0 -1.21199e-07 0)
(0 -1.21144e-07 0)
(0 -1.21091e-07 0)
(0 -1.21036e-07 0)
(0 -1.20979e-07 0)
(0 -1.20922e-07 0)
(0 -1.20867e-07 0)
(0 -1.20812e-07 0)
(0 -1.20755e-07 0)
(0 -1.20699e-07 0)
(0 -1.20644e-07 0)
(0 -1.20588e-07 0)
(0 -1.2053e-07 0)
(0 -1.20474e-07 0)
(0 -1.20418e-07 0)
(0 -1.20361e-07 0)
(0 -1.20303e-07 0)
(0 -1.20244e-07 0)
(0 -1.20187e-07 0)
(0 -1.20131e-07 0)
(0 -1.20072e-07 0)
(0 -1.20012e-07 0)
(0 -1.19952e-07 0)
(0 -1.19891e-07 0)
(0 -1.19832e-07 0)
(0 -1.19773e-07 0)
(0 -1.19714e-07 0)
(0 -1.19654e-07 0)
(0 -1.19594e-07 0)
(0 -1.19535e-07 0)
(0 -1.19475e-07 0)
(0 -1.19414e-07 0)
(0 -1.19353e-07 0)
(0 -1.19292e-07 0)
(0 -1.19231e-07 0)
(0 -1.1917e-07 0)
(0 -1.19107e-07 0)
(0 -1.19044e-07 0)
(0 -1.18983e-07 0)
(0 -1.1892e-07 0)
(0 -1.18856e-07 0)
(0 -1.18792e-07 0)
(0 -1.18729e-07 0)
(0 -1.18665e-07 0)
(0 -1.18602e-07 0)
(0 -1.18537e-07 0)
(0 -1.18473e-07 0)
(0 -1.18409e-07 0)
(0 -1.18344e-07 0)
(0 -1.18279e-07 0)
(0 -1.18213e-07 0)
(0 -1.18148e-07 0)
(0 -1.18082e-07 0)
(0 -1.18015e-07 0)
(0 -1.17948e-07 0)
(0 -1.17881e-07 0)
(0 -1.17814e-07 0)
(0 -1.17746e-07 0)
(0 -1.17679e-07 0)
(0 -1.1761e-07 0)
(0 -1.17541e-07 0)
(0 -1.17473e-07 0)
(0 -1.17405e-07 0)
(0 -1.17335e-07 0)
(0 -1.17265e-07 0)
(0 -1.17197e-07 0)
(0 -1.17128e-07 0)
(0 -1.17058e-07 0)
(0 -1.16988e-07 0)
(0 -1.16919e-07 0)
(0 -1.16849e-07 0)
(0 -1.16778e-07 0)
(0 -1.16707e-07 0)
(0 -1.16636e-07 0)
(0 -1.16565e-07 0)
(0 -1.16494e-07 0)
(0 -1.16423e-07 0)
(0 -1.16353e-07 0)
(0 -1.16281e-07 0)
(0 -1.16209e-07 0)
(0 -1.16136e-07 0)
(0 -1.16062e-07 0)
(0 -1.15988e-07 0)
(0 -1.15915e-07 0)
(0 -1.15841e-07 0)
(0 -1.15765e-07 0)
(0 -1.15691e-07 0)
(0 -1.15617e-07 0)
(0 -1.15544e-07 0)
(0 -1.1547e-07 0)
(0 -1.15395e-07 0)
(0 -1.15319e-07 0)
(0 -1.15243e-07 0)
(0 -1.15167e-07 0)
(0 -1.1509e-07 0)
(0 -1.15014e-07 0)
(0 -1.14938e-07 0)
(0 -1.1486e-07 0)
(0 -1.14783e-07 0)
(0 -1.14704e-07 0)
(0 -1.14626e-07 0)
(0 -1.14548e-07 0)
(0 -1.1447e-07 0)
(0 -1.14391e-07 0)
(0 -1.14312e-07 0)
(0 -1.14233e-07 0)
(0 -1.14154e-07 0)
(0 -1.14074e-07 0)
(0 -1.13994e-07 0)
(0 -1.13913e-07 0)
(0 -1.13833e-07 0)
(0 -1.13754e-07 0)
(0 -1.13673e-07 0)
(0 -1.13592e-07 0)
(0 -1.1351e-07 0)
(0 -1.13428e-07 0)
(0 -1.13346e-07 0)
(0 -1.13264e-07 0)
(0 -1.13181e-07 0)
(0 -1.13097e-07 0)
(0 -1.13013e-07 0)
(0 -1.1293e-07 0)
(0 -1.12846e-07 0)
(0 -1.12763e-07 0)
(0 -1.12677e-07 0)
(0 -1.12592e-07 0)
(0 -1.12507e-07 0)
(0 -1.12421e-07 0)
(0 -1.12336e-07 0)
(0 -1.1225e-07 0)
(0 -1.12164e-07 0)
(0 -1.12079e-07 0)
(0 -1.11992e-07 0)
(0 -1.11906e-07 0)
(0 -1.11818e-07 0)
(0 -1.1173e-07 0)
(0 -1.11643e-07 0)
(0 -1.11554e-07 0)
(0 -1.11466e-07 0)
(0 -1.11377e-07 0)
(0 -1.11287e-07 0)
(0 -1.11198e-07 0)
(0 -1.11109e-07 0)
(0 -1.11019e-07 0)
(0 -1.10929e-07 0)
(0 -1.10839e-07 0)
(0 -1.10749e-07 0)
(0 -1.1066e-07 0)
(0 -1.10568e-07 0)
(0 -1.10476e-07 0)
(0 -1.10383e-07 0)
(0 -1.1029e-07 0)
(0 -1.10197e-07 0)
(0 -1.10104e-07 0)
(0 -1.10012e-07 0)
(0 -1.09919e-07 0)
(0 -1.09825e-07 0)
(0 -1.0973e-07 0)
(0 -1.09636e-07 0)
(0 -1.09542e-07 0)
(0 -1.09446e-07 0)
(0 -1.09351e-07 0)
(0 -1.09256e-07 0)
(0 -1.0916e-07 0)
(0 -1.09064e-07 0)
(0 -1.08967e-07 0)
(0 -1.08871e-07 0)
(0 -1.08773e-07 0)
(0 -1.08674e-07 0)
(0 -1.08577e-07 0)
(0 -1.08478e-07 0)
(0 -1.08379e-07 0)
(0 -1.08281e-07 0)
(0 -1.08182e-07 0)
(0 -1.08082e-07 0)
(0 -1.0798e-07 0)
(0 -1.0788e-07 0)
(0 -1.07781e-07 0)
(0 -1.07681e-07 0)
(0 -1.0758e-07 0)
(0 -1.0748e-07 0)
(0 -1.07379e-07 0)
(0 -1.07277e-07 0)
(0 -1.07173e-07 0)
(0 -1.07071e-07 0)
(0 -1.06968e-07 0)
(0 -1.06865e-07 0)
(0 -1.06762e-07 0)
(0 -1.06658e-07 0)
(0 -1.06553e-07 0)
(0 -1.0645e-07 0)
(0 -1.06345e-07 0)
(0 -1.06239e-07 0)
(0 -1.06134e-07 0)
(0 -1.06029e-07 0)
(0 -1.05922e-07 0)
(0 -1.05815e-07 0)
(0 -1.05709e-07 0)
(0 -1.05602e-07 0)
(0 -1.05494e-07 0)
(0 -1.05386e-07 0)
(0 -1.05278e-07 0)
(0 -1.0517e-07 0)
(0 -1.05062e-07 0)
(0 -1.04953e-07 0)
(0 -1.04843e-07 0)
(0 -1.04733e-07 0)
(0 -1.04623e-07 0)
(0 -1.04513e-07 0)
(0 -1.04402e-07 0)
(0 -1.04292e-07 0)
(0 -1.0418e-07 0)
(0 -1.04067e-07 0)
(0 -1.03958e-07 0)
(0 -1.03848e-07 0)
(0 -1.03736e-07 0)
(0 -1.03623e-07 0)
(0 -1.03508e-07 0)
(0 -1.03393e-07 0)
(0 -1.03277e-07 0)
(0 -1.03162e-07 0)
(0 -1.03048e-07 0)
(0 -1.02932e-07 0)
(0 -1.02815e-07 0)
(0 -1.02699e-07 0)
(0 -1.02582e-07 0)
(0 -1.02464e-07 0)
(0 -1.02347e-07 0)
(0 -1.0223e-07 0)
(0 -1.02111e-07 0)
(0 -1.01991e-07 0)
(0 -1.01874e-07 0)
(0 -1.01757e-07 0)
(0 -1.01637e-07 0)
(0 -1.01517e-07 0)
(0 -1.01395e-07 0)
(0 -1.01273e-07 0)
(0 -1.01152e-07 0)
(0 -1.01032e-07 0)
(0 -1.00912e-07 0)
(0 -1.00789e-07 0)
(0 -1.00666e-07 0)
(0 -1.00543e-07 0)
(0 -1.00421e-07 0)
(0 -1.00296e-07 0)
(0 -1.0017e-07 0)
(0 -1.00045e-07 0)
(0 -9.99212e-08 0)
(0 -9.97975e-08 0)
(0 -9.96725e-08 0)
(0 -9.95452e-08 0)
(0 -9.94179e-08 0)
(0 -9.92907e-08 0)
(0 -9.91643e-08 0)
(0 -9.90376e-08 0)
(0 -9.89102e-08 0)
(0 -9.87833e-08 0)
(0 -9.86549e-08 0)
(0 -9.85261e-08 0)
(0 -9.83968e-08 0)
(0 -9.82686e-08 0)
(0 -9.81383e-08 0)
(0 -9.80078e-08 0)
(0 -9.7878e-08 0)
(0 -9.77458e-08 0)
(0 -9.76144e-08 0)
(0 -9.74816e-08 0)
(0 -9.73485e-08 0)
(0 -9.72158e-08 0)
(0 -9.70823e-08 0)
(0 -9.69486e-08 0)
(0 -9.68155e-08 0)
(0 -9.66819e-08 0)
(0 -9.65471e-08 0)
(0 -9.64133e-08 0)
(0 -9.62789e-08 0)
(0 -9.61424e-08 0)
(0 -9.6004e-08 0)
(0 -9.5867e-08 0)
(0 -9.57308e-08 0)
(0 -9.55942e-08 0)
(0 -9.54566e-08 0)
(0 -9.53183e-08 0)
(0 -9.51795e-08 0)
(0 -9.50388e-08 0)
(0 -9.48991e-08 0)
(0 -9.47593e-08 0)
(0 -9.46178e-08 0)
(0 -9.44778e-08 0)
(0 -9.4337e-08 0)
(0 -9.41932e-08 0)
(0 -9.40503e-08 0)
(0 -9.39089e-08 0)
(0 -9.37693e-08 0)
(0 -9.36278e-08 0)
(0 -9.34849e-08 0)
(0 -9.33424e-08 0)
(0 -9.31964e-08 0)
(0 -9.30496e-08 0)
(0 -9.29038e-08 0)
(0 -9.27569e-08 0)
(0 -9.26105e-08 0)
(0 -9.24636e-08 0)
(0 -9.23161e-08 0)
(0 -9.21693e-08 0)
(0 -9.20216e-08 0)
(0 -9.18734e-08 0)
(0 -9.17239e-08 0)
(0 -9.15736e-08 0)
(0 -9.14251e-08 0)
(0 -9.12754e-08 0)
(0 -9.11249e-08 0)
(0 -9.09751e-08 0)
(0 -9.08251e-08 0)
(0 -9.06746e-08 0)
(0 -9.05221e-08 0)
(0 -9.03662e-08 0)
(0 -9.02108e-08 0)
(0 -9.00567e-08 0)
(0 -8.99026e-08 0)
(0 -8.97486e-08 0)
(0 -8.95933e-08 0)
(0 -8.94368e-08 0)
(0 -8.92813e-08 0)
(0 -8.91242e-08 0)
(0 -8.89655e-08 0)
(0 -8.88085e-08 0)
(0 -8.86509e-08 0)
(0 -8.84922e-08 0)
(0 -8.83334e-08 0)
(0 -8.81746e-08 0)
(0 -8.80136e-08 0)
(0 -8.78534e-08 0)
(0 -8.76947e-08 0)
(0 -8.75333e-08 0)
(0 -8.73702e-08 0)
(0 -8.72086e-08 0)
(0 -8.70464e-08 0)
(0 -8.6882e-08 0)
(0 -8.67193e-08 0)
(0 -8.65569e-08 0)
(0 -8.6392e-08 0)
(0 -8.6227e-08 0)
(0 -8.60624e-08 0)
(0 -8.58968e-08 0)
(0 -8.57312e-08 0)
(0 -8.55652e-08 0)
(0 -8.5398e-08 0)
(0 -8.5229e-08 0)
(0 -8.50608e-08 0)
(0 -8.48938e-08 0)
(0 -8.4726e-08 0)
(0 -8.45571e-08 0)
(0 -8.4387e-08 0)
(0 -8.4218e-08 0)
(0 -8.40476e-08 0)
(0 -8.38752e-08 0)
(0 -8.37027e-08 0)
(0 -8.35314e-08 0)
(0 -8.33596e-08 0)
(0 -8.31864e-08 0)
(0 -8.30123e-08 0)
(0 -8.28378e-08 0)
(0 -8.26642e-08 0)
(0 -8.24902e-08 0)
(0 -8.2316e-08 0)
(0 -8.21405e-08 0)
(0 -8.19628e-08 0)
(0 -8.17844e-08 0)
(0 -8.16076e-08 0)
(0 -8.14297e-08 0)
(0 -8.12511e-08 0)
(0 -8.10714e-08 0)
(0 -8.08907e-08 0)
(0 -8.07108e-08 0)
(0 -8.05302e-08 0)
(0 -8.03492e-08 0)
(0 -8.01678e-08 0)
(0 -7.99858e-08 0)
(0 -7.98033e-08 0)
(0 -7.96204e-08 0)
(0 -7.94368e-08 0)
(0 -7.92531e-08 0)
(0 -7.90686e-08 0)
(0 -7.88824e-08 0)
(0 -7.86973e-08 0)
(0 -7.85119e-08 0)
(0 -7.83267e-08 0)
(0 -7.81404e-08 0)
(0 -7.7952e-08 0)
(0 -7.77625e-08 0)
(0 -7.75728e-08 0)
(0 -7.73843e-08 0)
(0 -7.71925e-08 0)
(0 -7.69993e-08 0)
(0 -7.68082e-08 0)
(0 -7.66166e-08 0)
(0 -7.64236e-08 0)
(0 -7.6231e-08 0)
(0 -7.60384e-08 0)
(0 -7.58449e-08 0)
(0 -7.56496e-08 0)
(0 -7.54535e-08 0)
(0 -7.52575e-08 0)
(0 -7.5062e-08 0)
(0 -7.48657e-08 0)
(0 -7.46682e-08 0)
(0 -7.44708e-08 0)
(0 -7.42736e-08 0)
(0 -7.4077e-08 0)
(0 -7.38775e-08 0)
(0 -7.36741e-08 0)
(0 -7.34741e-08 0)
(0 -7.3273e-08 0)
(0 -7.307e-08 0)
(0 -7.28681e-08 0)
(0 -7.26652e-08 0)
(0 -7.24614e-08 0)
(0 -7.22555e-08 0)
(0 -7.20505e-08 0)
(0 -7.18463e-08 0)
(0 -7.16412e-08 0)
(0 -7.14361e-08 0)
(0 -7.12304e-08 0)
(0 -7.1023e-08 0)
(0 -7.0816e-08 0)
(0 -7.06086e-08 0)
(0 -7.03994e-08 0)
(0 -7.01917e-08 0)
(0 -6.9984e-08 0)
(0 -6.9776e-08 0)
(0 -6.95663e-08 0)
(0 -6.93535e-08 0)
(0 -6.91395e-08 0)
(0 -6.89257e-08 0)
(0 -6.87116e-08 0)
(0 -6.84981e-08 0)
(0 -6.82862e-08 0)
(0 -6.80731e-08 0)
(0 -6.78571e-08 0)
(0 -6.76382e-08 0)
(0 -6.74204e-08 0)
(0 -6.72043e-08 0)
(0 -6.69866e-08 0)
(0 -6.67688e-08 0)
(0 -6.65508e-08 0)
(0 -6.63305e-08 0)
(0 -6.611e-08 0)
(0 -6.58899e-08 0)
(0 -6.56688e-08 0)
(0 -6.54471e-08 0)
(0 -6.52241e-08 0)
(0 -6.50015e-08 0)
(0 -6.47787e-08 0)
(0 -6.45524e-08 0)
(0 -6.43256e-08 0)
(0 -6.41005e-08 0)
(0 -6.38742e-08 0)
(0 -6.36483e-08 0)
(0 -6.3421e-08 0)
(0 -6.3193e-08 0)
(0 -6.29663e-08 0)
(0 -6.27375e-08 0)
(0 -6.25073e-08 0)
(0 -6.22772e-08 0)
(0 -6.20464e-08 0)
(0 -6.1816e-08 0)
(0 -6.15863e-08 0)
(0 -6.13553e-08 0)
(0 -6.11231e-08 0)
(0 -6.08897e-08 0)
(0 -6.0656e-08 0)
(0 -6.04234e-08 0)
(0 -6.01887e-08 0)
(0 -5.9951e-08 0)
(0 -5.97149e-08 0)
(0 -5.94771e-08 0)
(0 -5.92387e-08 0)
(0 -5.90014e-08 0)
(0 -5.87621e-08 0)
(0 -5.85207e-08 0)
(0 -5.82796e-08 0)
(0 -5.80383e-08 0)
(0 -5.77964e-08 0)
(0 -5.75534e-08 0)
(0 -5.73089e-08 0)
(0 -5.70642e-08 0)
(0 -5.68194e-08 0)
(0 -5.6577e-08 0)
(0 -5.63332e-08 0)
(0 -5.60884e-08 0)
(0 -5.58421e-08 0)
(0 -5.55939e-08 0)
(0 -5.5346e-08 0)
(0 -5.50962e-08 0)
(0 -5.48486e-08 0)
(0 -5.45995e-08 0)
(0 -5.43468e-08 0)
(0 -5.40958e-08 0)
(0 -5.3846e-08 0)
(0 -5.35935e-08 0)
(0 -5.33401e-08 0)
(0 -5.30883e-08 0)
(0 -5.28343e-08 0)
(0 -5.25784e-08 0)
(0 -5.23239e-08 0)
(0 -5.20693e-08 0)
(0 -5.18125e-08 0)
(0 -5.15552e-08 0)
(0 -5.1297e-08 0)
(0 -5.10374e-08 0)
(0 -5.07787e-08 0)
(0 -5.05217e-08 0)
(0 -5.02626e-08 0)
(0 -5.00013e-08 0)
(0 -4.97413e-08 0)
(0 -4.94786e-08 0)
(0 -4.92142e-08 0)
(0 -4.8952e-08 0)
(0 -4.86885e-08 0)
(0 -4.84238e-08 0)
(0 -4.81595e-08 0)
(0 -4.78934e-08 0)
(0 -4.76251e-08 0)
(0 -4.7357e-08 0)
(0 -4.70875e-08 0)
(0 -4.68176e-08 0)
(0 -4.65483e-08 0)
(0 -4.62776e-08 0)
(0 -4.60084e-08 0)
(0 -4.57384e-08 0)
(0 -4.54666e-08 0)
(0 -4.51922e-08 0)
(0 -4.49175e-08 0)
(0 -4.46437e-08 0)
(0 -4.43705e-08 0)
(0 -4.40961e-08 0)
(0 -4.38194e-08 0)
(0 -4.3542e-08 0)
(0 -4.32647e-08 0)
(0 -4.29888e-08 0)
(0 -4.27089e-08 0)
(0 -4.2427e-08 0)
(0 -4.21474e-08 0)
(0 -4.18675e-08 0)
(0 -4.15859e-08 0)
(0 -4.13035e-08 0)
(0 -4.10207e-08 0)
(0 -4.07381e-08 0)
(0 -4.04542e-08 0)
(0 -4.01682e-08 0)
(0 -3.98837e-08 0)
(0 -3.95998e-08 0)
(0 -3.93137e-08 0)
(0 -3.90278e-08 0)
(0 -3.87389e-08 0)
(0 -3.84491e-08 0)
(0 -3.81613e-08 0)
(0 -3.78719e-08 0)
(0 -3.75812e-08 0)
(0 -3.72902e-08 0)
(0 -3.69984e-08 0)
(0 -3.67062e-08 0)
(0 -3.64139e-08 0)
(0 -3.61189e-08 0)
(0 -3.58236e-08 0)
(0 -3.55285e-08 0)
(0 -3.52312e-08 0)
(0 -3.4935e-08 0)
(0 -3.4638e-08 0)
(0 -3.43424e-08 0)
(0 -3.40448e-08 0)
(0 -3.37446e-08 0)
(0 -3.34459e-08 0)
(0 -3.31451e-08 0)
(0 -3.28457e-08 0)
(0 -3.25456e-08 0)
(0 -3.22439e-08 0)
(0 -3.19418e-08 0)
(0 -3.16398e-08 0)
(0 -3.13349e-08 0)
(0 -3.10305e-08 0)
(0 -3.07266e-08 0)
(0 -3.04202e-08 0)
(0 -3.01135e-08 0)
(0 -2.98047e-08 0)
(0 -2.94965e-08 0)
(0 -2.91893e-08 0)
(0 -2.88799e-08 0)
(0 -2.85693e-08 0)
(0 -2.8258e-08 0)
(0 -2.79454e-08 0)
(0 -2.76325e-08 0)
(0 -2.73206e-08 0)
(0 -2.70079e-08 0)
(0 -2.66936e-08 0)
(0 -2.63803e-08 0)
(0 -2.60653e-08 0)
(0 -2.57486e-08 0)
(0 -2.5432e-08 0)
(0 -2.51146e-08 0)
(0 -2.47964e-08 0)
(0 -2.44779e-08 0)
(0 -2.41599e-08 0)
(0 -2.38416e-08 0)
(0 -2.35234e-08 0)
(0 -2.32049e-08 0)
(0 -2.28828e-08 0)
(0 -2.25596e-08 0)
(0 -2.22368e-08 0)
(0 -2.19124e-08 0)
(0 -2.15894e-08 0)
(0 -2.12678e-08 0)
(0 -2.09423e-08 0)
(0 -2.06159e-08 0)
(0 -2.02906e-08 0)
(0 -1.99644e-08 0)
(0 -1.96352e-08 0)
(0 -1.93047e-08 0)
(0 -1.89774e-08 0)
(0 -1.86484e-08 0)
(0 -1.83186e-08 0)
(0 -1.79884e-08 0)
(0 -1.76573e-08 0)
(0 -1.73259e-08 0)
(0 -1.69928e-08 0)
(0 -1.66588e-08 0)
(0 -1.63245e-08 0)
(0 -1.59911e-08 0)
(0 -1.56551e-08 0)
(0 -1.53191e-08 0)
(0 -1.49836e-08 0)
(0 -1.46455e-08 0)
(0 -1.43084e-08 0)
(0 -1.39717e-08 0)
(0 -1.36333e-08 0)
(0 -1.32936e-08 0)
(0 -1.29535e-08 0)
(0 -1.26131e-08 0)
(0 -1.22726e-08 0)
(0 -1.19326e-08 0)
(0 -1.15899e-08 0)
(0 -1.12464e-08 0)
(0 -1.09043e-08 0)
(0 -1.05596e-08 0)
(0 -1.02153e-08 0)
(0 -9.87102e-09 0)
(0 -9.52501e-09 0)
(0 -9.18077e-09 0)
(0 -8.83568e-09 0)
(0 -8.48889e-09 0)
(0 -8.14116e-09 0)
(0 -7.79301e-09 0)
(0 -7.444e-09 0)
(0 -7.09496e-09 0)
(0 -6.74597e-09 0)
(0 -6.39568e-09 0)
(0 -6.04449e-09 0)
(0 -5.69286e-09 0)
(0 -5.34127e-09 0)
(0 -4.98877e-09 0)
(0 -4.63581e-09 0)
(0 -4.2829e-09 0)
(0 -3.92864e-09 0)
(0 -3.57531e-09 0)
(0 -3.22238e-09 0)
(0 -2.86545e-09 0)
(0 -2.50767e-09 0)
(0 -2.15165e-09 0)
(0 -1.79563e-09 0)
(0 -1.43783e-09 0)
(0 -1.07735e-09 0)
(0 -7.17788e-10 0)
(0 -3.58196e-10 0)
(0 1.38755e-12 0)
(0 3.59594e-10 0)
(0 7.20057e-10 0)
(0 1.08052e-09 0)
(0 1.44006e-09 0)
(0 1.80185e-09 0)
(0 2.16407e-09 0)
(0 2.52539e-09 0)
(0 2.88673e-09 0)
(0 3.25118e-09 0)
(0 3.61831e-09 0)
(0 3.98364e-09 0)
(0 4.34807e-09 0)
(0 4.71383e-09 0)
(0 5.08001e-09 0)
(0 5.44667e-09 0)
(0 5.81331e-09 0)
(0 6.17993e-09 0)
(0 6.54834e-09 0)
(0 6.91625e-09 0)
(0 7.28506e-09 0)
(0 7.6561e-09 0)
(0 8.0262e-09 0)
(0 8.3954e-09 0)
(0 8.76635e-09 0)
(0 9.13817e-09 0)
(0 9.50684e-09 0)
(0 9.87773e-09 0)
(0 1.02521e-08 0)
(0 1.06252e-08 0)
(0 1.09986e-08 0)
(0 1.13729e-08 0)
(0 1.17476e-08 0)
(0 1.21232e-08 0)
(0 1.24969e-08 0)
(0 1.28697e-08 0)
(0 1.32424e-08 0)
(0 1.36164e-08 0)
(0 1.3993e-08 0)
(0 1.43682e-08 0)
(0 1.47447e-08 0)
(0 1.51224e-08 0)
(0 1.55001e-08 0)
(0 1.58795e-08 0)
(0 1.62588e-08 0)
(0 1.66385e-08 0)
(0 1.70176e-08 0)
(0 1.73962e-08 0)
(0 1.77773e-08 0)
(0 1.8157e-08 0)
(0 1.85353e-08 0)
(0 1.89156e-08 0)
(0 1.92977e-08 0)
(0 1.96778e-08 0)
(0 2.00582e-08 0)
(0 2.04425e-08 0)
(0 2.08258e-08 0)
(0 2.12054e-08 0)
(0 2.15879e-08 0)
(0 2.19729e-08 0)
(0 2.23569e-08 0)
(0 2.27412e-08 0)
(0 2.31252e-08 0)
(0 2.35096e-08 0)
(0 2.38915e-08 0)
(0 2.42741e-08 0)
(0 2.46591e-08 0)
(0 2.5044e-08 0)
(0 2.5429e-08 0)
(0 2.58152e-08 0)
(0 2.62029e-08 0)
(0 2.65913e-08 0)
(0 2.69785e-08 0)
(0 2.73637e-08 0)
(0 2.77491e-08 0)
(0 2.81359e-08 0)
(0 2.85234e-08 0)
(0 2.89111e-08 0)
(0 2.92984e-08 0)
(0 2.96849e-08 0)
(0 3.00734e-08 0)
(0 3.04638e-08 0)
(0 3.08543e-08 0)
(0 3.12426e-08 0)
(0 3.16319e-08 0)
(0 3.20245e-08 0)
(0 3.24126e-08 0)
(0 3.27999e-08 0)
(0 3.3189e-08 0)
(0 3.35777e-08 0)
(0 3.3967e-08 0)
(0 3.43579e-08 0)
(0 3.47485e-08 0)
(0 3.51377e-08 0)
(0 3.55282e-08 0)
(0 3.59183e-08 0)
(0 3.6307e-08 0)
(0 3.66969e-08 0)
(0 3.70886e-08 0)
(0 3.74803e-08 0)
(0 3.78718e-08 0)
(0 3.82645e-08 0)
(0 3.86559e-08 0)
(0 3.90466e-08 0)
(0 3.94386e-08 0)
(0 3.983e-08 0)
(0 4.02216e-08 0)
(0 4.06117e-08 0)
(0 4.10035e-08 0)
(0 4.1396e-08 0)
(0 4.17864e-08 0)
(0 4.21762e-08 0)
(0 4.25666e-08 0)
(0 4.29598e-08 0)
(0 4.33529e-08 0)
(0 4.37443e-08 0)
(0 4.41358e-08 0)
(0 4.45271e-08 0)
(0 4.49184e-08 0)
(0 4.53108e-08 0)
(0 4.57038e-08 0)
)
;

boundaryField
{
    bottom
    {
        type            fixedValue;
        value           uniform (0 0 0);
    }
    top
    {
        type            fluxCorrectedVelocity;
        phi             phi.gas;
        rho             rho.gas;
        value           uniform (0 4.59004e-08 0);
    }
    walls
    {
        type            fixedValue;
        value           uniform (0 0 0);
    }
}


// ************************************************************************* //
