/*--------------------------------*- C++ -*----------------------------------*\
| =========                 |                                                 |
| \\      /  F ield         | foam-extend: Open Source CFD                    |
|  \\    /   O peration     | Version:     5.0                                |
|   \\  /    A nd           | Web:         http://www.foam-extend.org         |
|    \\/     M anipulation  |                                                 |
\*---------------------------------------------------------------------------*/
FoamFile
{
    version     2.0;
    format      ascii;
    class       volVectorField;
    location    "20000";
    object      U.water;
}
// * * * * * * * * * * * * * * * * * * * * * * * * * * * * * * * * * * * * * //

dimensions      [0 1 -1 0 0 0 0];

internalField   nonuniform List<vector> 
1500
(
(0 -6.66776e-12 0)
(0 -6.42405e-12 0)
(0 6.76449e-12 0)
(0 -2.08265e-13 0)
(0 -5.68551e-12 0)
(0 -4.67256e-12 0)
(0 3.14628e-12 0)
(0 6.63624e-12 0)
(0 -7.96022e-12 0)
(0 -6.88262e-12 0)
(0 7.94514e-12 0)
(0 2.1658e-12 0)
(0 5.46098e-13 0)
(0 -1.78525e-12 0)
(0 -1.39654e-11 0)
(0 -2.93077e-12 0)
(0 -3.23856e-12 0)
(0 -3.72218e-14 0)
(0 7.56578e-12 0)
(0 -4.67681e-12 0)
(0 -2.31564e-11 0)
(0 -4.5377e-12 0)
(0 2.72769e-12 0)
(0 -6.15852e-12 0)
(0 -5.10849e-12 0)
(0 -4.46729e-12 0)
(0 -6.06188e-12 0)
(0 -1.1818e-11 0)
(0 -2.05771e-11 0)
(0 -1.09998e-11 0)
(0 -1.08516e-12 0)
(0 -1.33134e-11 0)
(0 -2.62026e-11 0)
(0 -1.86046e-11 0)
(0 -1.62798e-12 0)
(0 -1.02811e-12 0)
(0 -1.89068e-11 0)
(0 -2.6914e-11 0)
(0 -1.18808e-11 0)
(0 -7.5854e-12 0)
(0 -1.6974e-11 0)
(0 -1.8791e-11 0)
(0 -3.10269e-11 0)
(0 -3.71636e-11 0)
(0 -1.23193e-11 0)
(0 -2.54752e-11 0)
(0 -1.69035e-11 0)
(0 -4.76185e-12 0)
(0 -3.04227e-11 0)
(0 -3.80729e-11 0)
(0 -3.8007e-11 0)
(0 -2.87351e-11 0)
(0 -2.13449e-11 0)
(0 -4.15106e-11 0)
(0 -2.88263e-11 0)
(0 -2.97439e-11 0)
(0 -3.08213e-11 0)
(0 -3.43628e-11 0)
(0 -3.9562e-11 0)
(0 -3.31315e-11 0)
(0 -4.87505e-11 0)
(0 -5.41771e-11 0)
(0 -4.79326e-11 0)
(0 -3.64332e-11 0)
(0 -5.01728e-11 0)
(0 -5.60296e-11 0)
(0 -3.69532e-11 0)
(0 -3.54071e-11 0)
(0 -5.34696e-11 0)
(0 -5.8165e-11 0)
(0 -5.27708e-11 0)
(0 -5.53416e-11 0)
(0 -6.41992e-11 0)
(0 -6.68064e-11 0)
(0 -6.16648e-11 0)
(0 -5.51042e-11 0)
(0 -5.81034e-11 0)
(0 -7.28221e-11 0)
(0 -7.4174e-11 0)
(0 -6.54863e-11 0)
(0 -7.25559e-11 0)
(0 -7.80445e-11 0)
(0 -7.7328e-11 0)
(0 -6.50199e-11 0)
(0 -6.69635e-11 0)
(0 -9.00255e-11 0)
(0 -7.78145e-11 0)
(0 -7.98094e-11 0)
(0 -9.12401e-11 0)
(0 -7.92206e-11 0)
(0 -8.14288e-11 0)
(0 -1.00866e-10 0)
(0 -1.00624e-10 0)
(0 -7.93982e-11 0)
(0 -9.51691e-11 0)
(0 -1.14703e-10 0)
(0 -1.09105e-10 0)
(0 -9.35097e-11 0)
(0 -9.76892e-11 0)
(0 -1.04176e-10 0)
(0 -9.27619e-11 0)
(0 -1.12783e-10 0)
(0 -1.23198e-10 0)
(0 -1.19565e-10 0)
(0 -1.19938e-10 0)
(0 -1.18748e-10 0)
(0 -1.15369e-10 0)
(0 -1.19904e-10 0)
(0 -1.34511e-10 0)
(0 -1.31079e-10 0)
(0 -1.27814e-10 0)
(0 -1.19147e-10 0)
(0 -1.35608e-10 0)
(0 -1.44188e-10 0)
(0 -1.39418e-10 0)
(0 -1.48053e-10 0)
(0 -1.56612e-10 0)
(0 -1.44064e-10 0)
(0 -1.48936e-10 0)
(0 -1.499e-10 0)
(0 -1.49332e-10 0)
(0 -1.50401e-10 0)
(0 -1.55471e-10 0)
(0 -1.82318e-10 0)
(0 -1.55867e-10 0)
(0 -1.64951e-10 0)
(0 -1.80113e-10 0)
(0 -1.61737e-10 0)
(0 -1.82643e-10 0)
(0 -1.74401e-10 0)
(0 -1.83562e-10 0)
(0 -2.08233e-10 0)
(0 -1.76472e-10 0)
(0 -1.81913e-10 0)
(0 -1.98995e-10 0)
(0 -1.87032e-10 0)
(0 -1.96452e-10 0)
(0 -2.13557e-10 0)
(0 -2.01586e-10 0)
(0 -2.07047e-10 0)
(0 -2.08639e-10 0)
(0 -1.96966e-10 0)
(0 -2.18298e-10 0)
(0 -2.31619e-10 0)
(0 -2.15982e-10 0)
(0 -2.17752e-10 0)
(0 -2.42935e-10 0)
(0 -2.27351e-10 0)
(0 -2.21389e-10 0)
(0 -2.52248e-10 0)
(0 -2.4356e-10 0)
(0 -2.25246e-10 0)
(0 -2.47807e-10 0)
(0 -2.5007e-10 0)
(0 -2.41321e-10 0)
(0 -2.52222e-10 0)
(0 -2.66303e-10 0)
(0 -2.69223e-10 0)
(0 -2.60512e-10 0)
(0 -2.59057e-10 0)
(0 -2.70084e-10 0)
(0 -2.81069e-10 0)
(0 -2.71766e-10 0)
(0 -2.82795e-10 0)
(0 -2.93812e-10 0)
(0 -2.72938e-10 0)
(0 -2.95846e-10 0)
(0 -3.10803e-10 0)
(0 -2.85964e-10 0)
(0 -3.05049e-10 0)
(0 -3.08379e-10 0)
(0 -3.03258e-10 0)
(0 -3.10609e-10 0)
(0 -3.25798e-10 0)
(0 -3.36292e-10 0)
(0 -3.20031e-10 0)
(0 -3.27487e-10 0)
(0 -3.30306e-10 0)
(0 -3.14414e-10 0)
(0 -3.33882e-10 0)
(0 -3.48487e-10 0)
(0 -3.55982e-10 0)
(0 -3.55668e-10 0)
(0 -3.42938e-10 0)
(0 -3.42848e-10 0)
(0 -3.66365e-10 0)
(0 -3.77188e-10 0)
(0 -3.61274e-10 0)
(0 -3.69085e-10 0)
(0 -3.80037e-10 0)
(0 -3.76111e-10 0)
(0 -3.8006e-10 0)
(0 -3.94921e-10 0)
(0 -3.98844e-10 0)
(0 -3.91072e-10 0)
(0 -4.02115e-10 0)
(0 -4.06167e-10 0)
(0 -4.10238e-10 0)
(0 -4.2124e-10 0)
(0 -4.13562e-10 0)
(0 -4.13878e-10 0)
(0 -4.25023e-10 0)
(0 -4.3702e-10 0)
(0 -4.2951e-10 0)
(0 -4.32923e-10 0)
(0 -4.48913e-10 0)
(0 -4.41378e-10 0)
(0 -4.4877e-10 0)
(0 -4.49339e-10 0)
(0 -4.57644e-10 0)
(0 -4.76705e-10 0)
(0 -4.69311e-10 0)
(0 -4.73706e-10 0)
(0 -4.73314e-10 0)
(0 -4.89577e-10 0)
(0 -4.97815e-10 0)
(0 -4.77829e-10 0)
(0 -4.82531e-10 0)
(0 -4.98928e-10 0)
(0 -5.0265e-10 0)
(0 -5.07321e-10 0)
(0 -5.1198e-10 0)
(0 -5.2349e-10 0)
(0 -5.20294e-10 0)
(0 -5.17273e-10 0)
(0 -5.44496e-10 0)
(0 -5.41306e-10 0)
(0 -5.22681e-10 0)
(0 -5.4611e-10 0)
(0 -5.62656e-10 0)
(0 -5.55678e-10 0)
(0 -5.59516e-10 0)
(0 -5.52719e-10 0)
(0 -5.53875e-10 0)
(0 -5.65864e-10 0)
(0 -5.82621e-10 0)
(0 -5.95434e-10 0)
(0 -5.75886e-10 0)
(0 -5.89636e-10 0)
(0 -6.1878e-10 0)
(0 -6.07245e-10 0)
(0 -5.94023e-10 0)
(0 -5.23291e-10 0)
(0 4.21382e-10 0)
(0 2.17895e-09 0)
(0 3.94448e-09 0)
(0 5.72027e-09 0)
(0 7.49881e-09 0)
(0 9.30328e-09 0)
(0 1.10979e-08 0)
(0 1.2908e-08 0)
(0 1.47665e-08 0)
(0 1.66087e-08 0)
(0 1.84727e-08 0)
(0 2.03129e-08 0)
(0 2.21862e-08 0)
(0 2.40955e-08 0)
(0 2.59431e-08 0)
(0 2.78907e-08 0)
(0 2.98373e-08 0)
(0 3.17416e-08 0)
(0 3.36804e-08 0)
(0 3.56284e-08 0)
(0 3.76084e-08 0)
(0 3.95575e-08 0)
(0 4.1586e-08 0)
(0 4.36039e-08 0)
(0 4.55663e-08 0)
(0 4.75744e-08 0)
(0 4.96148e-08 0)
(0 5.17091e-08 0)
(0 5.37837e-08 0)
(0 5.58208e-08 0)
(0 5.79025e-08 0)
(0 5.99838e-08 0)
(0 6.20957e-08 0)
(0 6.41997e-08 0)
(0 6.63056e-08 0)
(0 6.84712e-08 0)
(0 7.0588e-08 0)
(0 7.28141e-08 0)
(0 7.49218e-08 0)
(0 7.70739e-08 0)
(0 7.92994e-08 0)
(0 8.14186e-08 0)
(0 8.37645e-08 0)
(0 8.5972e-08 0)
(0 8.81949e-08 0)
(0 9.04967e-08 0)
(0 9.26652e-08 0)
(0 9.49031e-08 0)
(0 9.72301e-08 0)
(0 9.96227e-08 0)
(0 1.01878e-07 0)
(0 1.04093e-07 0)
(0 1.06347e-07 0)
(0 1.08724e-07 0)
(0 1.11178e-07 0)
(0 1.13556e-07 0)
(0 1.15853e-07 0)
(0 1.18302e-07 0)
(0 1.20707e-07 0)
(0 1.2313e-07 0)
(0 1.2551e-07 0)
(0 1.27971e-07 0)
(0 1.30346e-07 0)
(0 1.32662e-07 0)
(0 1.35219e-07 0)
(0 1.37656e-07 0)
(0 1.40306e-07 0)
(0 1.42767e-07 0)
(0 1.45196e-07 0)
(0 1.47683e-07 0)
(0 1.50191e-07 0)
(0 1.52806e-07 0)
(0 1.55234e-07 0)
(0 1.58031e-07 0)
(0 1.60497e-07 0)
(0 1.62942e-07 0)
(0 1.65809e-07 0)
(0 1.6836e-07 0)
(0 1.70742e-07 0)
(0 1.73364e-07 0)
(0 1.76253e-07 0)
(0 1.78794e-07 0)
(0 1.81364e-07 0)
(0 1.84178e-07 0)
(0 1.86711e-07 0)
(0 1.8943e-07 0)
(0 1.92269e-07 0)
(0 1.9486e-07 0)
(0 1.97513e-07 0)
(0 2.00276e-07 0)
(0 2.03226e-07 0)
(0 2.05974e-07 0)
(0 2.08646e-07 0)
(0 2.11304e-07 0)
(0 2.142e-07 0)
(0 2.17145e-07 0)
(0 2.19867e-07 0)
(0 2.22657e-07 0)
(0 2.25476e-07 0)
(0 2.28304e-07 0)
(0 2.31188e-07 0)
(0 2.34096e-07 0)
(0 2.37067e-07 0)
(0 2.39748e-07 0)
(0 2.42638e-07 0)
(0 2.45776e-07 0)
(0 2.48472e-07 0)
(0 2.5152e-07 0)
(0 2.54604e-07 0)
(0 2.57345e-07 0)
(0 2.60418e-07 0)
(0 2.63455e-07 0)
(0 2.66186e-07 0)
(0 2.69467e-07 0)
(0 2.72486e-07 0)
(0 2.7538e-07 0)
(0 2.78378e-07 0)
(0 2.81365e-07 0)
(0 2.84321e-07 0)
(0 2.87511e-07 0)
(0 2.90958e-07 0)
(0 2.9384e-07 0)
(0 2.96753e-07 0)
(0 2.99833e-07 0)
(0 3.02935e-07 0)
(0 3.06374e-07 0)
(0 3.09589e-07 0)
(0 3.12472e-07 0)
(0 3.15707e-07 0)
(0 3.18701e-07 0)
(0 3.21963e-07 0)
(0 3.25438e-07 0)
(0 3.28248e-07 0)
(0 3.31479e-07 0)
(0 3.34999e-07 0)
(0 3.38088e-07 0)
(0 3.41703e-07 0)
(0 3.4467e-07 0)
(0 3.47729e-07 0)
(0 3.51283e-07 0)
(0 3.54437e-07 0)
(0 3.57552e-07 0)
(0 3.60958e-07 0)
(0 3.64539e-07 0)
(0 3.67835e-07 0)
(0 3.71122e-07 0)
(0 3.74398e-07 0)
(0 3.77996e-07 0)
(0 3.81316e-07 0)
(0 3.84517e-07 0)
(0 3.87843e-07 0)
(0 3.91371e-07 0)
(0 3.95025e-07 0)
(0 3.98095e-07 0)
(0 4.01587e-07 0)
(0 4.05386e-07 0)
(0 4.08688e-07 0)
(0 4.12083e-07 0)
(0 4.15688e-07 0)
(0 4.19215e-07 0)
(0 4.22401e-07 0)
(0 4.25995e-07 0)
(0 4.29728e-07 0)
(0 4.33154e-07 0)
(0 4.36567e-07 0)
(0 4.40126e-07 0)
(0 4.4383e-07 0)
(0 4.47521e-07 0)
(0 4.50898e-07 0)
(0 4.545e-07 0)
(0 4.58283e-07 0)
(0 4.61901e-07 0)
(0 4.6575e-07 0)
(0 4.69166e-07 0)
(0 4.72721e-07 0)
(0 4.76445e-07 0)
(0 4.80041e-07 0)
(0 4.83722e-07 0)
(0 4.87616e-07 0)
(0 4.91407e-07 0)
(0 4.94794e-07 0)
(0 4.98303e-07 0)
(0 5.02384e-07 0)
(0 5.06277e-07 0)
(0 5.09888e-07 0)
(0 5.13679e-07 0)
(0 5.17445e-07 0)
(0 5.21442e-07 0)
(0 5.25006e-07 0)
(0 5.28718e-07 0)
(0 5.32668e-07 0)
(0 5.36543e-07 0)
(0 5.40364e-07 0)
(0 5.44119e-07 0)
(0 5.47964e-07 0)
(0 5.51897e-07 0)
(0 5.5595e-07 0)
(0 5.59803e-07 0)
(0 5.63434e-07 0)
(0 5.67216e-07 0)
(0 5.71569e-07 0)
(0 5.75726e-07 0)
(0 5.79198e-07 0)
(0 5.83199e-07 0)
(0 5.87229e-07 0)
(0 5.91073e-07 0)
(0 5.95182e-07 0)
(0 5.99246e-07 0)
(0 6.02996e-07 0)
(0 6.0713e-07 0)
(0 6.11381e-07 0)
(0 6.15108e-07 0)
(0 6.19263e-07 0)
(0 6.23403e-07 0)
(0 6.27486e-07 0)
(0 6.31403e-07 0)
(0 6.35492e-07 0)
(0 6.39871e-07 0)
(0 6.43888e-07 0)
(0 6.47893e-07 0)
(0 6.5185e-07 0)
(0 6.55969e-07 0)
(0 6.60422e-07 0)
(0 6.64587e-07 0)
(0 6.68604e-07 0)
(0 6.72724e-07 0)
(0 6.77288e-07 0)
(0 6.81267e-07 0)
(0 6.85189e-07 0)
(0 6.89661e-07 0)
(0 6.93909e-07 0)
(0 6.98095e-07 0)
(0 7.0217e-07 0)
(0 7.06594e-07 0)
(0 7.10912e-07 0)
(0 7.14877e-07 0)
(0 7.19416e-07 0)
(0 7.23758e-07 0)
(0 7.28018e-07 0)
(0 7.32337e-07 0)
(0 7.36663e-07 0)
(0 7.41038e-07 0)
(0 7.45226e-07 0)
(0 7.49679e-07 0)
(0 7.54044e-07 0)
(0 7.58554e-07 0)
(0 7.62893e-07 0)
(0 7.67173e-07 0)
(0 7.71483e-07 0)
(0 7.75699e-07 0)
(0 7.80427e-07 0)
(0 7.84942e-07 0)
(0 7.89246e-07 0)
(0 7.93893e-07 0)
(0 7.98334e-07 0)
(0 8.02549e-07 0)
(0 8.07193e-07 0)
(0 8.11745e-07 0)
(0 8.15882e-07 0)
(0 8.2058e-07 0)
(0 8.25306e-07 0)
(0 8.29706e-07 0)
(0 8.3432e-07 0)
(0 8.38631e-07 0)
(0 8.43253e-07 0)
(0 8.48081e-07 0)
(0 8.52374e-07 0)
(0 8.57149e-07 0)
(0 8.61821e-07 0)
(0 8.6638e-07 0)
(0 8.70735e-07 0)
(0 8.75322e-07 0)
(0 8.80179e-07 0)
(0 8.8473e-07 0)
(0 8.89558e-07 0)
(0 8.9418e-07 0)
(0 8.98618e-07 0)
(0 9.03206e-07 0)
(0 9.08065e-07 0)
(0 9.12953e-07 0)
(0 9.17704e-07 0)
(0 9.22342e-07 0)
(0 9.2678e-07 0)
(0 9.31528e-07 0)
(0 9.36603e-07 0)
(0 9.41272e-07 0)
(0 9.45858e-07 0)
(0 9.50843e-07 0)
(0 9.55642e-07 0)
(0 9.60028e-07 0)
(0 9.65159e-07 0)
(0 9.70008e-07 0)
(0 9.74601e-07 0)
(0 9.7946e-07 0)
(0 9.84284e-07 0)
(0 9.89203e-07 0)
(0 9.94202e-07 0)
(0 9.99038e-07 0)
(0 1.00377e-06 0)
(0 1.00887e-06 0)
(0 1.01356e-06 0)
(0 1.01826e-06 0)
(0 1.02342e-06 0)
(0 1.02839e-06 0)
(0 1.03324e-06 0)
(0 1.03823e-06 0)
(0 1.04318e-06 0)
(0 1.04811e-06 0)
(0 1.05297e-06 0)
(0 1.05802e-06 0)
(0 1.06275e-06 0)
(0 1.06789e-06 0)
(0 1.07308e-06 0)
(0 1.07795e-06 0)
(0 1.08319e-06 0)
(0 1.08809e-06 0)
(0 1.09285e-06 0)
(0 1.09794e-06 0)
(0 1.10338e-06 0)
(0 1.10828e-06 0)
(0 1.11304e-06 0)
(0 1.11817e-06 0)
(0 1.12355e-06 0)
(0 1.12856e-06 0)
(0 1.13342e-06 0)
(0 1.13879e-06 0)
(0 1.14388e-06 0)
(0 1.14902e-06 0)
(0 1.15411e-06 0)
(0 1.15912e-06 0)
(0 1.16431e-06 0)
(0 1.16944e-06 0)
(0 1.1747e-06 0)
(0 1.17985e-06 0)
(0 1.18506e-06 0)
(0 1.19038e-06 0)
(0 1.19552e-06 0)
(0 1.20071e-06 0)
(0 1.20583e-06 0)
(0 1.21118e-06 0)
(0 1.21661e-06 0)
(0 1.22156e-06 0)
(0 1.22657e-06 0)
(0 1.23197e-06 0)
(0 1.2374e-06 0)
(0 1.24264e-06 0)
(0 1.24792e-06 0)
(0 1.25327e-06 0)
(0 1.25856e-06 0)
(0 1.26399e-06 0)
(0 1.26914e-06 0)
(0 1.27431e-06 0)
(0 1.27985e-06 0)
(0 1.28509e-06 0)
(0 1.29055e-06 0)
(0 1.29594e-06 0)
(0 1.3012e-06 0)
(0 1.3065e-06 0)
(0 1.31208e-06 0)
(0 1.31734e-06 0)
(0 1.32273e-06 0)
(0 1.32814e-06 0)
(0 1.3334e-06 0)
(0 1.33921e-06 0)
(0 1.34437e-06 0)
(0 1.34986e-06 0)
(0 1.35558e-06 0)
(0 1.36096e-06 0)
(0 1.36604e-06 0)
(0 1.37141e-06 0)
(0 1.3773e-06 0)
(0 1.38287e-06 0)
(0 1.38809e-06 0)
(0 1.39358e-06 0)
(0 1.39907e-06 0)
(0 1.40463e-06 0)
(0 1.41011e-06 0)
(0 1.41568e-06 0)
(0 1.42118e-06 0)
(0 1.4267e-06 0)
(0 1.43257e-06 0)
(0 1.43814e-06 0)
(0 1.44359e-06 0)
(0 1.44889e-06 0)
(0 1.45433e-06 0)
(0 1.46031e-06 0)
(0 1.46588e-06 0)
(0 1.47117e-06 0)
(0 1.47693e-06 0)
(0 1.48269e-06 0)
(0 1.48829e-06 0)
(0 1.49396e-06 0)
(0 1.49947e-06 0)
(0 1.50508e-06 0)
(0 1.511e-06 0)
(0 1.51644e-06 0)
(0 1.52191e-06 0)
(0 1.52788e-06 0)
(0 1.53358e-06 0)
(0 1.53921e-06 0)
(0 1.54484e-06 0)
(0 1.55052e-06 0)
(0 1.55639e-06 0)
(0 1.56192e-06 0)
(0 1.56762e-06 0)
(0 1.57347e-06 0)
(0 1.57927e-06 0)
(0 1.58502e-06 0)
(0 1.59052e-06 0)
(0 1.59625e-06 0)
(0 1.60221e-06 0)
(0 1.60816e-06 0)
(0 1.61382e-06 0)
(0 1.61941e-06 0)
(0 1.62532e-06 0)
(0 1.63123e-06 0)
(0 1.63692e-06 0)
(0 1.64254e-06 0)
(0 1.64859e-06 0)
(0 1.65448e-06 0)
(0 1.66018e-06 0)
(0 1.66607e-06 0)
(0 1.67172e-06 0)
(0 1.6777e-06 0)
(0 1.68355e-06 0)
(0 1.68931e-06 0)
(0 1.69539e-06 0)
(0 1.70114e-06 0)
(0 1.70699e-06 0)
(0 1.71308e-06 0)
(0 1.71881e-06 0)
(0 1.72458e-06 0)
(0 1.73054e-06 0)
(0 1.7367e-06 0)
(0 1.74249e-06 0)
(0 1.74826e-06 0)
(0 1.75441e-06 0)
(0 1.76016e-06 0)
(0 1.76608e-06 0)
(0 1.77211e-06 0)
(0 1.77815e-06 0)
(0 1.7839e-06 0)
(0 1.78982e-06 0)
(0 1.79612e-06 0)
(0 1.80208e-06 0)
(0 1.80773e-06 0)
(0 1.81381e-06 0)
(0 1.81999e-06 0)
(0 1.8259e-06 0)
(0 1.83192e-06 0)
(0 1.8377e-06 0)
(0 1.84389e-06 0)
(0 1.85001e-06 0)
(0 1.85592e-06 0)
(0 1.86201e-06 0)
(0 1.86797e-06 0)
(0 1.87389e-06 0)
(0 1.87999e-06 0)
(0 1.88625e-06 0)
(0 1.89219e-06 0)
(0 1.89817e-06 0)
(0 1.90442e-06 0)
(0 1.91042e-06 0)
(0 1.91649e-06 0)
(0 1.92266e-06 0)
(0 1.9284e-06 0)
(0 1.93457e-06 0)
(0 1.94087e-06 0)
(0 1.94691e-06 0)
(0 1.95302e-06 0)
(0 1.95923e-06 0)
(0 1.96538e-06 0)
(0 1.97128e-06 0)
(0 1.97736e-06 0)
(0 1.98373e-06 0)
(0 1.98985e-06 0)
(0 1.99579e-06 0)
(0 2.00191e-06 0)
(0 2.00807e-06 0)
(0 2.0144e-06 0)
(0 2.02062e-06 0)
(0 2.02656e-06 0)
(0 2.03272e-06 0)
(0 2.03898e-06 0)
(0 2.04508e-06 0)
(0 2.05139e-06 0)
(0 2.0576e-06 0)
(0 2.06375e-06 0)
(0 2.06979e-06 0)
(0 2.07605e-06 0)
(0 2.08247e-06 0)
(0 2.08846e-06 0)
(0 2.09461e-06 0)
(0 2.10081e-06 0)
(0 2.10715e-06 0)
(0 2.11346e-06 0)
(0 2.11957e-06 0)
(0 2.12557e-06 0)
(0 2.13195e-06 0)
(0 2.13838e-06 0)
(0 2.14439e-06 0)
(0 2.15066e-06 0)
(0 2.15692e-06 0)
(0 2.16323e-06 0)
(0 2.16946e-06 0)
(0 2.17578e-06 0)
(0 2.18189e-06 0)
(0 2.18821e-06 0)
(0 2.19459e-06 0)
(0 2.20068e-06 0)
(0 2.20703e-06 0)
(0 2.21322e-06 0)
(0 2.21967e-06 0)
(0 2.22582e-06 0)
(0 2.23201e-06 0)
(0 2.23849e-06 0)
(0 2.24466e-06 0)
(0 2.25094e-06 0)
(0 2.25726e-06 0)
(0 2.26364e-06 0)
(0 2.26981e-06 0)
(0 2.27607e-06 0)
(0 2.2826e-06 0)
(0 2.28883e-06 0)
(0 2.29498e-06 0)
(0 2.30135e-06 0)
(0 2.30777e-06 0)
(0 2.31412e-06 0)
(0 2.32032e-06 0)
(0 2.32667e-06 0)
(0 2.33312e-06 0)
(0 2.3393e-06 0)
(0 2.34556e-06 0)
(0 2.35198e-06 0)
(0 2.35826e-06 0)
(0 2.36471e-06 0)
(0 2.37102e-06 0)
(0 2.3773e-06 0)
(0 2.38375e-06 0)
(0 2.3899e-06 0)
(0 2.3963e-06 0)
(0 2.40261e-06 0)
(0 2.40893e-06 0)
(0 2.41536e-06 0)
(0 2.42181e-06 0)
(0 2.42793e-06 0)
(0 2.43419e-06 0)
(0 2.44091e-06 0)
(0 2.4472e-06 0)
(0 2.45351e-06 0)
(0 2.45975e-06 0)
(0 2.46609e-06 0)
(0 2.47247e-06 0)
(0 2.47883e-06 0)
(0 2.48526e-06 0)
(0 2.49158e-06 0)
(0 2.49802e-06 0)
(0 2.50435e-06 0)
(0 2.51067e-06 0)
(0 2.51699e-06 0)
(0 2.52325e-06 0)
(0 2.52973e-06 0)
(0 2.53622e-06 0)
(0 2.5425e-06 0)
(0 2.54877e-06 0)
(0 2.5552e-06 0)
(0 2.56156e-06 0)
(0 2.56794e-06 0)
(0 2.57429e-06 0)
(0 2.5806e-06 0)
(0 2.58692e-06 0)
(0 2.59348e-06 0)
(0 2.59984e-06 0)
(0 2.60601e-06 0)
(0 2.61241e-06 0)
(0 2.61868e-06 0)
(0 2.62521e-06 0)
(0 2.63168e-06 0)
(0 2.63789e-06 0)
(0 2.64405e-06 0)
(0 2.65051e-06 0)
(0 2.65703e-06 0)
(0 2.66329e-06 0)
(0 2.66974e-06 0)
(0 2.67599e-06 0)
(0 2.68217e-06 0)
(0 2.6887e-06 0)
(0 2.69516e-06 0)
(0 2.70133e-06 0)
(0 2.70773e-06 0)
(0 2.71412e-06 0)
(0 2.72035e-06 0)
(0 2.72681e-06 0)
(0 2.73309e-06 0)
(0 2.73949e-06 0)
(0 2.74575e-06 0)
(0 2.75195e-06 0)
(0 2.75853e-06 0)
(0 2.76463e-06 0)
(0 2.77104e-06 0)
(0 2.7775e-06 0)
(0 2.78368e-06 0)
(0 2.79001e-06 0)
(0 2.79635e-06 0)
(0 2.80266e-06 0)
(0 2.80896e-06 0)
(0 2.81532e-06 0)
(0 2.8216e-06 0)
(0 2.82786e-06 0)
(0 2.83411e-06 0)
(0 2.84036e-06 0)
(0 2.84669e-06 0)
(0 2.853e-06 0)
(0 2.85934e-06 0)
(0 2.86568e-06 0)
(0 2.87194e-06 0)
(0 2.8781e-06 0)
(0 2.88432e-06 0)
(0 2.89066e-06 0)
(0 2.89698e-06 0)
(0 2.90317e-06 0)
(0 2.90934e-06 0)
(0 2.91562e-06 0)
(0 2.92192e-06 0)
(0 2.92826e-06 0)
(0 2.93436e-06 0)
(0 2.94059e-06 0)
(0 2.94689e-06 0)
(0 2.95292e-06 0)
(0 2.95921e-06 0)
(0 2.96558e-06 0)
(0 2.97161e-06 0)
(0 2.97788e-06 0)
(0 2.98419e-06 0)
(0 2.99022e-06 0)
(0 2.99633e-06 0)
(0 3.0026e-06 0)
(0 3.00886e-06 0)
(0 3.01504e-06 0)
(0 3.02117e-06 0)
(0 3.02719e-06 0)
(0 3.03333e-06 0)
(0 3.03959e-06 0)
(0 3.04554e-06 0)
(0 3.05172e-06 0)
(0 3.05807e-06 0)
(0 3.06407e-06 0)
(0 3.07011e-06 0)
(0 3.07623e-06 0)
(0 3.08225e-06 0)
(0 3.08842e-06 0)
(0 3.09456e-06 0)
(0 3.10047e-06 0)
(0 3.10646e-06 0)
(0 3.11273e-06 0)
(0 3.11876e-06 0)
(0 3.12463e-06 0)
(0 3.13083e-06 0)
(0 3.13688e-06 0)
(0 3.14278e-06 0)
(0 3.14878e-06 0)
(0 3.15485e-06 0)
(0 3.16082e-06 0)
(0 3.16677e-06 0)
(0 3.17275e-06 0)
(0 3.17866e-06 0)
(0 3.18464e-06 0)
(0 3.19063e-06 0)
(0 3.19659e-06 0)
(0 3.20243e-06 0)
(0 3.20843e-06 0)
(0 3.21431e-06 0)
(0 3.22008e-06 0)
(0 3.2261e-06 0)
(0 3.23214e-06 0)
(0 3.23787e-06 0)
(0 3.24361e-06 0)
(0 3.24937e-06 0)
(0 3.25518e-06 0)
(0 3.26111e-06 0)
(0 3.26693e-06 0)
(0 3.27279e-06 0)
(0 3.27867e-06 0)
(0 3.28433e-06 0)
(0 3.28993e-06 0)
(0 3.2959e-06 0)
(0 3.3016e-06 0)
(0 3.30727e-06 0)
(0 3.31313e-06 0)
(0 3.31871e-06 0)
(0 3.32441e-06 0)
(0 3.33018e-06 0)
(0 3.33584e-06 0)
(0 3.34146e-06 0)
(0 3.34696e-06 0)
(0 3.35267e-06 0)
(0 3.35821e-06 0)
(0 3.3639e-06 0)
(0 3.36964e-06 0)
(0 3.37524e-06 0)
(0 3.38076e-06 0)
(0 3.38604e-06 0)
(0 3.39175e-06 0)
(0 3.39733e-06 0)
(0 3.40275e-06 0)
(0 3.40811e-06 0)
(0 3.41357e-06 0)
(0 3.41927e-06 0)
(0 3.42484e-06 0)
(0 3.43016e-06 0)
(0 3.43541e-06 0)
(0 3.44067e-06 0)
(0 3.44622e-06 0)
(0 3.45172e-06 0)
(0 3.45701e-06 0)
(0 3.46228e-06 0)
(0 3.46756e-06 0)
(0 3.47298e-06 0)
(0 3.47812e-06 0)
(0 3.48345e-06 0)
(0 3.48879e-06 0)
(0 3.4941e-06 0)
(0 3.49899e-06 0)
(0 3.50421e-06 0)
(0 3.50963e-06 0)
(0 3.51467e-06 0)
(0 3.51996e-06 0)
(0 3.5249e-06 0)
(0 3.52995e-06 0)
(0 3.53518e-06 0)
(0 3.54022e-06 0)
(0 3.5452e-06 0)
(0 3.5503e-06 0)
(0 3.5553e-06 0)
(0 3.56032e-06 0)
(0 3.5654e-06 0)
(0 3.57021e-06 0)
(0 3.57497e-06 0)
(0 3.57981e-06 0)
(0 3.585e-06 0)
(0 3.5899e-06 0)
(0 3.59465e-06 0)
(0 3.59942e-06 0)
(0 3.60427e-06 0)
(0 3.60905e-06 0)
(0 3.61362e-06 0)
(0 3.61854e-06 0)
(0 3.62323e-06 0)
(0 3.62779e-06 0)
(0 3.63274e-06 0)
(0 3.6373e-06 0)
(0 3.64167e-06 0)
(0 3.64639e-06 0)
(0 3.65104e-06 0)
(0 3.65571e-06 0)
(0 3.66005e-06 0)
(0 3.66447e-06 0)
(0 3.66904e-06 0)
(0 3.67322e-06 0)
(0 3.67779e-06 0)
(0 3.6824e-06 0)
(0 3.68673e-06 0)
(0 3.69106e-06 0)
(0 3.69531e-06 0)
(0 3.69958e-06 0)
(0 3.70386e-06 0)
(0 3.70812e-06 0)
(0 3.71233e-06 0)
(0 3.71647e-06 0)
(0 3.72067e-06 0)
(0 3.72497e-06 0)
(0 3.72895e-06 0)
(0 3.73294e-06 0)
(0 3.73704e-06 0)
(0 3.74099e-06 0)
(0 3.7451e-06 0)
(0 3.74893e-06 0)
(0 3.75266e-06 0)
(0 3.75673e-06 0)
(0 3.76072e-06 0)
(0 3.76457e-06 0)
(0 3.76836e-06 0)
(0 3.77203e-06 0)
(0 3.77577e-06 0)
(0 3.77959e-06 0)
(0 3.7832e-06 0)
(0 3.78682e-06 0)
(0 3.7906e-06 0)
(0 3.79411e-06 0)
(0 3.79757e-06 0)
(0 3.80117e-06 0)
(0 3.80465e-06 0)
(0 3.80791e-06 0)
(0 3.81148e-06 0)
(0 3.81499e-06 0)
(0 3.81811e-06 0)
(0 3.82138e-06 0)
(0 3.82485e-06 0)
(0 3.82801e-06 0)
(0 3.83111e-06 0)
(0 3.8345e-06 0)
(0 3.83762e-06 0)
(0 3.84055e-06 0)
(0 3.84369e-06 0)
(0 3.84677e-06 0)
(0 3.84967e-06 0)
(0 3.85268e-06 0)
(0 3.85554e-06 0)
(0 3.85822e-06 0)
(0 3.86108e-06 0)
(0 3.86411e-06 0)
(0 3.86691e-06 0)
(0 3.86954e-06 0)
(0 3.8721e-06 0)
(0 3.87472e-06 0)
(0 3.8774e-06 0)
(0 3.8798e-06 0)
(0 3.88234e-06 0)
(0 3.8849e-06 0)
(0 3.88745e-06 0)
(0 3.88976e-06 0)
(0 3.89189e-06 0)
(0 3.89422e-06 0)
(0 3.8966e-06 0)
(0 3.89879e-06 0)
(0 3.90085e-06 0)
(0 3.90306e-06 0)
(0 3.90515e-06 0)
(0 3.90704e-06 0)
(0 3.90897e-06 0)
(0 3.91109e-06 0)
(0 3.91303e-06 0)
(0 3.91478e-06 0)
(0 3.91647e-06 0)
(0 3.91824e-06 0)
(0 3.9201e-06 0)
(0 3.92175e-06 0)
(0 3.92315e-06 0)
(0 3.92474e-06 0)
(0 3.92634e-06 0)
(0 3.92776e-06 0)
(0 3.92912e-06 0)
(0 3.93043e-06 0)
(0 3.93186e-06 0)
(0 3.93301e-06 0)
(0 3.93413e-06 0)
(0 3.93546e-06 0)
(0 3.93661e-06 0)
(0 3.93758e-06 0)
(0 3.93847e-06 0)
(0 3.93934e-06 0)
(0 3.9402e-06 0)
(0 3.94122e-06 0)
(0 3.94203e-06 0)
(0 3.94246e-06 0)
(0 3.94315e-06 0)
(0 3.94397e-06 0)
(0 3.94446e-06 0)
(0 3.94492e-06 0)
(0 3.94538e-06 0)
(0 3.94562e-06 0)
(0 3.946e-06 0)
(0 3.94625e-06 0)
(0 3.94646e-06 0)
(0 3.94659e-06 0)
(0 3.94663e-06 0)
(0 3.94663e-06 0)
(0 3.94662e-06 0)
(0 3.94658e-06 0)
(0 3.94645e-06 0)
(0 3.94623e-06 0)
(0 3.94565e-06 0)
(0 3.94523e-06 0)
(0 3.94517e-06 0)
(0 3.94458e-06 0)
(0 3.94388e-06 0)
(0 3.94346e-06 0)
(0 3.94277e-06 0)
(0 3.94193e-06 0)
(0 3.94109e-06 0)
(0 3.94023e-06 0)
(0 3.93929e-06 0)
(0 3.93826e-06 0)
(0 3.93728e-06 0)
(0 3.93609e-06 0)
(0 3.93469e-06 0)
(0 3.93355e-06 0)
(0 3.93218e-06 0)
(0 3.9306e-06 0)
(0 3.92927e-06 0)
(0 3.92777e-06 0)
(0 3.92606e-06 0)
(0 3.92413e-06 0)
(0 3.92229e-06 0)
(0 3.92053e-06 0)
(0 3.91863e-06 0)
(0 3.91656e-06 0)
(0 3.91456e-06 0)
(0 3.91245e-06 0)
(0 3.91007e-06 0)
(0 3.90763e-06 0)
(0 3.90521e-06 0)
(0 3.90297e-06 0)
(0 3.90042e-06 0)
(0 3.89766e-06 0)
(0 3.89501e-06 0)
(0 3.89215e-06 0)
(0 3.88921e-06 0)
(0 3.88631e-06 0)
(0 3.88325e-06 0)
(0 3.88015e-06 0)
(0 3.87691e-06 0)
(0 3.87354e-06 0)
(0 3.87023e-06 0)
(0 3.86686e-06 0)
(0 3.86321e-06 0)
(0 3.85958e-06 0)
(0 3.85599e-06 0)
(0 3.85209e-06 0)
(0 3.84824e-06 0)
(0 3.84423e-06 0)
(0 3.84014e-06 0)
(0 3.83608e-06 0)
(0 3.83165e-06 0)
(0 3.82731e-06 0)
(0 3.823e-06 0)
(0 3.81846e-06 0)
(0 3.81389e-06 0)
(0 3.80922e-06 0)
(0 3.80436e-06 0)
(0 3.79946e-06 0)
(0 3.79441e-06 0)
(0 3.78946e-06 0)
(0 3.78437e-06 0)
(0 3.7789e-06 0)
(0 3.77346e-06 0)
(0 3.76816e-06 0)
(0 3.76257e-06 0)
(0 3.75683e-06 0)
(0 3.75122e-06 0)
(0 3.7453e-06 0)
(0 3.73925e-06 0)
(0 3.73332e-06 0)
(0 3.72711e-06 0)
(0 3.72085e-06 0)
(0 3.71445e-06 0)
(0 3.70795e-06 0)
(0 3.70145e-06 0)
(0 3.69482e-06 0)
(0 3.68819e-06 0)
(0 3.68114e-06 0)
(0 3.67413e-06 0)
(0 3.66704e-06 0)
(0 3.65975e-06 0)
(0 3.65254e-06 0)
(0 3.64503e-06 0)
(0 3.63766e-06 0)
(0 3.6299e-06 0)
(0 3.62198e-06 0)
(0 3.61443e-06 0)
(0 3.60653e-06 0)
(0 3.59816e-06 0)
(0 3.58996e-06 0)
(0 3.5818e-06 0)
(0 3.57321e-06 0)
(0 3.56476e-06 0)
(0 3.55626e-06 0)
(0 3.54743e-06 0)
(0 3.53838e-06 0)
(0 3.52941e-06 0)
(0 3.52034e-06 0)
(0 3.5111e-06 0)
(0 3.50182e-06 0)
(0 3.49244e-06 0)
(0 3.48264e-06 0)
(0 3.47283e-06 0)
(0 3.46323e-06 0)
(0 3.45307e-06 0)
(0 3.44296e-06 0)
(0 3.43302e-06 0)
(0 3.42249e-06 0)
(0 3.41198e-06 0)
(0 3.40153e-06 0)
(0 3.39072e-06 0)
(0 3.37986e-06 0)
(0 3.36903e-06 0)
(0 3.35788e-06 0)
(0 3.34665e-06 0)
(0 3.3354e-06 0)
(0 3.3239e-06 0)
(0 3.31232e-06 0)
(0 3.30054e-06 0)
(0 3.28861e-06 0)
(0 3.27653e-06 0)
(0 3.26453e-06 0)
(0 3.25234e-06 0)
(0 3.23999e-06 0)
(0 3.22741e-06 0)
(0 3.21455e-06 0)
(0 3.2018e-06 0)
(0 3.18899e-06 0)
(0 3.17604e-06 0)
(0 3.16258e-06 0)
(0 3.14921e-06 0)
(0 3.13592e-06 0)
(0 3.12231e-06 0)
(0 3.10845e-06 0)
(0 3.09447e-06 0)
(0 3.08048e-06 0)
(0 3.06637e-06 0)
(0 3.05202e-06 0)
(0 3.03745e-06 0)
(0 3.023e-06 0)
(0 3.00827e-06 0)
(0 2.99322e-06 0)
(0 2.9783e-06 0)
(0 2.96301e-06 0)
(0 2.94764e-06 0)
(0 2.93237e-06 0)
(0 2.91672e-06 0)
(0 2.90092e-06 0)
(0 2.88492e-06 0)
(0 2.86885e-06 0)
(0 2.85277e-06 0)
(0 2.83637e-06 0)
(0 2.81974e-06 0)
(0 2.80313e-06 0)
(0 2.78644e-06 0)
(0 2.76941e-06 0)
(0 2.75231e-06 0)
(0 2.73507e-06 0)
(0 2.71773e-06 0)
(0 2.7e-06 0)
(0 2.68229e-06 0)
(0 2.66453e-06 0)
(0 2.6464e-06 0)
(0 2.62839e-06 0)
(0 2.60995e-06 0)
(0 2.59144e-06 0)
(0 2.57283e-06 0)
(0 2.55402e-06 0)
(0 2.53499e-06 0)
(0 2.51601e-06 0)
(0 2.49674e-06 0)
(0 2.47717e-06 0)
(0 2.45763e-06 0)
(0 2.43787e-06 0)
(0 2.4181e-06 0)
(0 2.39804e-06 0)
(0 2.37769e-06 0)
(0 2.35733e-06 0)
(0 2.33681e-06 0)
(0 2.31611e-06 0)
(0 2.29533e-06 0)
(0 2.27435e-06 0)
(0 2.25312e-06 0)
(0 2.23178e-06 0)
(0 2.21032e-06 0)
(0 2.18856e-06 0)
(0 2.16671e-06 0)
(0 2.1448e-06 0)
(0 2.12265e-06 0)
(0 2.10033e-06 0)
(0 2.07794e-06 0)
(0 2.05531e-06 0)
(0 2.03243e-06 0)
(0 2.00953e-06 0)
(0 1.98642e-06 0)
(0 1.96291e-06 0)
(0 1.93956e-06 0)
(0 1.91611e-06 0)
(0 1.89221e-06 0)
(0 1.86841e-06 0)
(0 1.84433e-06 0)
(0 1.8198e-06 0)
(0 1.79538e-06 0)
(0 1.77099e-06 0)
(0 1.74627e-06 0)
(0 1.72108e-06 0)
(0 1.69599e-06 0)
(0 1.67099e-06 0)
(0 1.64547e-06 0)
(0 1.61992e-06 0)
(0 1.59417e-06 0)
(0 1.56819e-06 0)
(0 1.54218e-06 0)
(0 1.51596e-06 0)
(0 1.4895e-06 0)
(0 1.46296e-06 0)
(0 1.43627e-06 0)
(0 1.40933e-06 0)
(0 1.38237e-06 0)
(0 1.35507e-06 0)
(0 1.32764e-06 0)
(0 1.30025e-06 0)
(0 1.27256e-06 0)
(0 1.24452e-06 0)
(0 1.21652e-06 0)
(0 1.18837e-06 0)
(0 1.16002e-06 0)
(0 1.1316e-06 0)
(0 1.10296e-06 0)
(0 1.074e-06 0)
(0 1.04501e-06 0)
(0 1.01594e-06 0)
(0 9.86552e-07 0)
(0 9.57127e-07 0)
(0 9.27513e-07 0)
(0 8.97697e-07 0)
(0 8.67842e-07 0)
(0 8.37682e-07 0)
(0 8.07323e-07 0)
(0 7.76954e-07 0)
(0 7.46502e-07 0)
(0 7.15691e-07 0)
(0 6.84803e-07 0)
(0 6.5383e-07 0)
(0 6.22539e-07 0)
(0 5.91187e-07 0)
(0 5.59731e-07 0)
(0 5.2815e-07 0)
(0 4.96367e-07 0)
(0 4.64378e-07 0)
(0 4.32278e-07 0)
(0 3.99919e-07 0)
(0 3.67641e-07 0)
(0 3.35243e-07 0)
(0 3.02286e-07 0)
(0 2.69419e-07 0)
(0 2.36638e-07 0)
(0 2.03506e-07 0)
(0 1.70107e-07 0)
(0 1.36677e-07 0)
(0 1.032e-07 0)
(0 6.94944e-08 0)
(0 3.56499e-08 0)
(0 1.72951e-09 0)
(0 -3.24351e-08 0)
(0 -6.6709e-08 0)
(0 -1.01065e-07 0)
(0 -1.35678e-07 0)
(0 -1.70279e-07 0)
(0 -2.05014e-07 0)
(0 -2.40059e-07 0)
(0 -2.75249e-07 0)
(0 -3.10419e-07 0)
(0 -3.4552e-07 0)
(0 -3.8101e-07 0)
(0 -4.16744e-07 0)
(0 -4.52409e-07 0)
(0 -4.88204e-07 0)
(0 -5.24106e-07 0)
(0 -5.60195e-07 0)
(0 -5.96543e-07 0)
(0 -6.32789e-07 0)
(0 -6.69261e-07 0)
(0 -7.05896e-07 0)
(0 -7.4245e-07 0)
(0 -7.79272e-07 0)
(0 -8.16226e-07 0)
(0 -8.53195e-07 0)
(0 -8.9029e-07 0)
(0 -9.27754e-07 0)
(0 -9.65131e-07 0)
(0 -1.00241e-06 0)
(0 -1.04009e-06 0)
(0 -1.07783e-06 0)
(0 -1.11551e-06 0)
(0 -1.15343e-06 0)
(0 -1.19141e-06 0)
(0 -1.22946e-06 0)
(0 -1.26765e-06 0)
(0 -1.30597e-06 0)
(0 -1.34449e-06 0)
(0 -1.38287e-06 0)
(0 -1.42145e-06 0)
(0 -1.46016e-06 0)
(0 -1.49884e-06 0)
(0 -1.53773e-06 0)
(0 -1.57663e-06 0)
(0 -1.61566e-06 0)
(0 -1.65472e-06 0)
(0 -1.69386e-06 0)
(0 -1.73328e-06 0)
(0 -1.77248e-06 0)
(0 -1.81183e-06 0)
(0 -1.85151e-06 0)
(0 -1.89102e-06 0)
(0 -1.93056e-06 0)
(0 -1.97034e-06 0)
(0 -2.01024e-06 0)
(0 -2.04993e-06 0)
(0 -2.08969e-06 0)
(0 -2.1299e-06 0)
(0 -2.16996e-06 0)
(0 -2.20995e-06 0)
(0 -2.25016e-06 0)
(0 -2.29031e-06 0)
(0 -2.33054e-06 0)
(0 -2.37084e-06 0)
(0 -2.41128e-06 0)
(0 -2.45173e-06 0)
(0 -2.49219e-06 0)
(0 -2.53276e-06 0)
(0 -2.5733e-06 0)
(0 -2.61394e-06 0)
(0 -2.65458e-06 0)
(0 -2.69511e-06 0)
(0 -2.73577e-06 0)
(0 -2.77665e-06 0)
(0 -2.81749e-06 0)
(0 -2.8583e-06 0)
(0 -2.89916e-06 0)
(0 -2.94e-06 0)
(0 -2.98086e-06 0)
(0 -3.02189e-06 0)
(0 -3.06292e-06 0)
(0 -3.10387e-06 0)
(0 -3.14471e-06 0)
(0 -3.18578e-06 0)
(0 -3.22693e-06 0)
(0 -3.26777e-06 0)
(0 -3.30885e-06 0)
(0 -3.34998e-06 0)
(0 -3.39108e-06 0)
(0 -3.43212e-06 0)
(0 -3.47326e-06 0)
(0 -3.51434e-06 0)
(0 -3.55534e-06 0)
(0 -3.59653e-06 0)
(0 -3.63757e-06 0)
(0 -3.67855e-06 0)
(0 -3.71969e-06 0)
(0 -3.7608e-06 0)
(0 -3.80186e-06 0)
(0 -3.84291e-06 0)
(0 -3.88387e-06 0)
(0 -3.9248e-06 0)
(0 -3.9659e-06 0)
(0 -4.00691e-06 0)
(0 -4.04779e-06 0)
(0 -4.08874e-06 0)
(0 -4.1296e-06 0)
(0 -4.17052e-06 0)
(0 -4.21142e-06 0)
(0 -4.25219e-06 0)
(0 -4.29291e-06 0)
(0 -4.33369e-06 0)
(0 -4.37451e-06 0)
(0 -4.41516e-06 0)
(0 -4.45572e-06 0)
(0 -4.49636e-06 0)
(0 -4.53693e-06 0)
(0 -4.5775e-06 0)
(0 -4.61799e-06 0)
(0 -4.65839e-06 0)
(0 -4.69875e-06 0)
)
;

boundaryField
{
    bottom
    {
        type            fixedValue;
        value           uniform (0 0 0);
    }
    top
    {
        type            fluxCorrectedVelocity;
        phi             phi.water;
        rho             rho.water;
        value           uniform (0 -4.71887e-06 0);
    }
    walls
    {
        type            fixedValue;
        value           uniform (0 0 0);
    }
}


// ************************************************************************* //
