/*--------------------------------*- C++ -*----------------------------------*\
| =========                 |                                                 |
| \\      /  F ield         | foam-extend: Open Source CFD                    |
|  \\    /   O peration     | Version:     5.0                                |
|   \\  /    A nd           | Web:         http://www.foam-extend.org         |
|    \\/     M anipulation  |                                                 |
\*---------------------------------------------------------------------------*/
FoamFile
{
    version     2.0;
    format      ascii;
    class       surfaceScalarField;
    location    "3";
    object      phi;
}
// * * * * * * * * * * * * * * * * * * * * * * * * * * * * * * * * * * * * * //

dimensions      [0 3 -1 0 0 0 0];

internalField   nonuniform List<scalar> 
99
(
1.22582e-06
1.22728e-06
1.22824e-06
1.23581e-06
1.227e-06
1.22679e-06
1.22742e-06
1.22794e-06
1.22417e-06
1.22164e-06
1.22018e-06
1.22114e-06
1.21864e-06
1.21555e-06
1.21884e-06
1.22365e-06
1.21779e-06
1.21779e-06
1.2222e-06
1.21934e-06
1.22485e-06
1.21832e-06
1.21913e-06
1.21882e-06
1.21484e-06
1.21259e-06
1.21644e-06
1.21469e-06
1.21564e-06
1.21586e-06
1.21531e-06
1.21752e-06
1.2151e-06
1.21689e-06
1.21457e-06
1.21619e-06
1.21574e-06
1.21289e-06
1.21484e-06
1.21286e-06
1.21366e-06
1.2158e-06
1.21237e-06
1.21595e-06
1.21335e-06
1.21623e-06
1.21864e-06
1.21694e-06
1.21955e-06
1.21876e-06
1.21994e-06
1.22096e-06
1.2193e-06
1.21973e-06
1.21974e-06
1.22121e-06
1.22066e-06
1.21865e-06
1.21908e-06
1.21669e-06
1.21892e-06
1.21975e-06
1.21632e-06
1.21766e-06
1.21679e-06
1.21818e-06
1.21858e-06
1.21696e-06
1.21765e-06
1.21962e-06
1.21937e-06
1.21847e-06
1.21841e-06
1.21806e-06
1.21835e-06
1.21893e-06
1.21834e-06
1.21897e-06
1.2183e-06
1.21833e-06
1.21741e-06
1.21801e-06
1.21756e-06
1.21852e-06
1.21763e-06
1.21877e-06
1.21751e-06
1.21783e-06
1.21831e-06
1.21851e-06
1.21839e-06
1.21866e-06
1.21724e-06
1.21895e-06
1.21848e-06
1.21809e-06
1.21756e-06
1.21796e-06
1.21779e-06
)
;

boundaryField
{
    inlet
    {
        type            calculated;
        value           uniform -1.225e-06;
    }
    outlet
    {
        type            calculated;
        value           uniform 1.21751e-06;
    }
    yzfaces
    {
        type            empty;
    }
}


// ************************************************************************* //
