/*--------------------------------*- C++ -*----------------------------------*\
| =========                 |                                                 |
| \\      /  F ield         | foam-extend: Open Source CFD                    |
|  \\    /   O peration     | Version:     5.0                                |
|   \\  /    A nd           | Web:         http://www.foam-extend.org         |
|    \\/     M anipulation  |                                                 |
\*---------------------------------------------------------------------------*/
FoamFile
{
    version     2.0;
    format      ascii;
    class       volVectorField;
    location    "3";
    object      U.gas;
}
// * * * * * * * * * * * * * * * * * * * * * * * * * * * * * * * * * * * * * //

dimensions      [0 1 -1 0 0 0 0];

internalField   nonuniform List<vector> 
100
(
(0.0128114 0 0)
(0.0130977 0 0)
(0.013395 0 0)
(0.0137105 0 0)
(0.0139634 0 0)
(0.0142161 0 0)
(0.0144956 0 0)
(0.01476 0 0)
(0.0149919 0 0)
(0.0152206 0 0)
(0.0154664 0 0)
(0.0157193 0 0)
(0.0159279 0 0)
(0.0161495 0 0)
(0.0164051 0 0)
(0.0166664 0 0)
(0.0168502 0 0)
(0.0170504 0 0)
(0.0172914 0 0)
(0.0174845 0 0)
(0.0176996 0 0)
(0.0178676 0 0)
(0.0180327 0 0)
(0.0182063 0 0)
(0.01834 0 0)
(0.0184761 0 0)
(0.0186519 0 0)
(0.0188242 0 0)
(0.0189759 0 0)
(0.0191193 0 0)
(0.019273 0 0)
(0.0194286 0 0)
(0.0195449 0 0)
(0.0196827 0 0)
(0.0197833 0 0)
(0.0199044 0 0)
(0.0200253 0 0)
(0.020125 0 0)
(0.0202282 0 0)
(0.0203147 0 0)
(0.0204222 0 0)
(0.020527 0 0)
(0.0205923 0 0)
(0.0207116 0 0)
(0.0207806 0 0)
(0.0208756 0 0)
(0.0209799 0 0)
(0.0210533 0 0)
(0.0211388 0 0)
(0.0212072 0 0)
(0.0212774 0 0)
(0.0213461 0 0)
(0.0213954 0 0)
(0.0214536 0 0)
(0.0214986 0 0)
(0.0215484 0 0)
(0.0215807 0 0)
(0.0215912 0 0)
(0.0216243 0 0)
(0.0216371 0 0)
(0.0216737 0 0)
(0.0216974 0 0)
(0.0216915 0 0)
(0.021696 0 0)
(0.0216934 0 0)
(0.0217142 0 0)
(0.0217178 0 0)
(0.0217031 0 0)
(0.0216927 0 0)
(0.021701 0 0)
(0.0216814 0 0)
(0.0216489 0 0)
(0.0216086 0 0)
(0.0215692 0 0)
(0.0215319 0 0)
(0.0214925 0 0)
(0.0214265 0 0)
(0.0213627 0 0)
(0.0212883 0 0)
(0.0212038 0 0)
(0.0211039 0 0)
(0.0210132 0 0)
(0.0209081 0 0)
(0.0207961 0 0)
(0.020657 0 0)
(0.0205216 0 0)
(0.0203579 0 0)
(0.0201904 0 0)
(0.0200138 0 0)
(0.0198269 0 0)
(0.0196111 0 0)
(0.0193884 0 0)
(0.0191349 0 0)
(0.0188896 0 0)
(0.0186167 0 0)
(0.0183196 0 0)
(0.018007 0 0)
(0.0176926 0 0)
(0.0173658 0 0)
(0.0169665 0 0)
)
;

boundaryField
{
    inlet
    {
        type            fixedValue;
        value           uniform (0.005 0 0);
    }
    outlet
    {
        type            zeroGradient;
    }
    yzfaces
    {
        type            empty;
    }
}


// ************************************************************************* //
