/*--------------------------------*- C++ -*----------------------------------*\
| =========                 |                                                 |
| \\      /  F ield         | foam-extend: Open Source CFD                    |
|  \\    /   O peration     | Version:     5.0                                |
|   \\  /    A nd           | Web:         http://www.foam-extend.org         |
|    \\/     M anipulation  |                                                 |
\*---------------------------------------------------------------------------*/
FoamFile
{
    version     2.0;
    format      ascii;
    class       volVectorField;
    location    "3";
    object      U.water;
}
// * * * * * * * * * * * * * * * * * * * * * * * * * * * * * * * * * * * * * //

dimensions      [0 1 -1 0 0 0 0];

internalField   nonuniform List<vector> 
100
(
(1.88481e-05 0 0)
(5.34892e-05 0 0)
(8.55788e-05 0 0)
(0.000131234 0 0)
(0.00016689 0 0)
(0.00019217 0 0)
(0.000232981 0 0)
(0.000279239 0 0)
(0.000320056 0 0)
(0.000354027 0 0)
(0.000387416 0 0)
(0.00043201 0 0)
(0.000476626 0 0)
(0.000506629 0 0)
(0.000544354 0 0)
(0.000597304 0 0)
(0.000638286 0 0)
(0.000666719 0 0)
(0.000710467 0 0)
(0.000752725 0 0)
(0.000793164 0 0)
(0.000829545 0 0)
(0.000861006 0 0)
(0.000902608 0 0)
(0.000938122 0 0)
(0.000970116 0 0)
(0.00101013 0 0)
(0.00104797 0 0)
(0.00108531 0 0)
(0.00112405 0 0)
(0.00115722 0 0)
(0.00119791 0 0)
(0.00123542 0 0)
(0.00127101 0 0)
(0.00130966 0 0)
(0.00134471 0 0)
(0.00138082 0 0)
(0.00141297 0 0)
(0.0014516 0 0)
(0.001489 0 0)
(0.0015221 0 0)
(0.00156421 0 0)
(0.00159697 0 0)
(0.00163145 0 0)
(0.00167061 0 0)
(0.00170606 0 0)
(0.00174797 0 0)
(0.00178257 0 0)
(0.00181887 0 0)
(0.0018566 0 0)
(0.00189226 0 0)
(0.00193081 0 0)
(0.00196496 0 0)
(0.00200014 0 0)
(0.00203941 0 0)
(0.0020798 0 0)
(0.00211913 0 0)
(0.00215212 0 0)
(0.0021874 0 0)
(0.00222287 0 0)
(0.00226184 0 0)
(0.00230604 0 0)
(0.00234013 0 0)
(0.00237711 0 0)
(0.00241761 0 0)
(0.00245756 0 0)
(0.00250049 0 0)
(0.00253876 0 0)
(0.0025781 0 0)
(0.00262339 0 0)
(0.00266756 0 0)
(0.00270764 0 0)
(0.00274915 0 0)
(0.00279176 0 0)
(0.00283534 0 0)
(0.00288145 0 0)
(0.00292754 0 0)
(0.00297362 0 0)
(0.00302023 0 0)
(0.00306692 0 0)
(0.0031136 0 0)
(0.00316169 0 0)
(0.00321152 0 0)
(0.00326369 0 0)
(0.00331615 0 0)
(0.0033688 0 0)
(0.00342213 0 0)
(0.00347413 0 0)
(0.00353007 0 0)
(0.00358665 0 0)
(0.00364252 0 0)
(0.0036987 0 0)
(0.00375314 0 0)
(0.00380974 0 0)
(0.00386812 0 0)
(0.0039224 0 0)
(0.00397549 0 0)
(0.00402808 0 0)
(0.00407959 0 0)
(0.00412939 0 0)
)
;

boundaryField
{
    inlet
    {
        type            fixedValue;
        value           uniform (0 0 0);
    }
    outlet
    {
        type            zeroGradient;
    }
    yzfaces
    {
        type            empty;
    }
}


// ************************************************************************* //
