/*--------------------------------*- C++ -*----------------------------------*\
| =========                 |                                                 |
| \\      /  F ield         | foam-extend: Open Source CFD                    |
|  \\    /   O peration     | Version:     5.0                                |
|   \\  /    A nd           | Web:         http://www.foam-extend.org         |
|    \\/     M anipulation  |                                                 |
\*---------------------------------------------------------------------------*/
FoamFile
{
    version     2.0;
    format      ascii;
    class       surfaceScalarField;
    location    "4";
    object      phi;
}
// * * * * * * * * * * * * * * * * * * * * * * * * * * * * * * * * * * * * * //

dimensions      [0 3 -1 0 0 0 0];

internalField   nonuniform List<scalar> 
99
(
1.22491e-06
1.22512e-06
1.22664e-06
1.22665e-06
1.22741e-06
1.22658e-06
1.2267e-06
1.22639e-06
1.22728e-06
1.22696e-06
1.22759e-06
1.22745e-06
1.22768e-06
1.22715e-06
1.22774e-06
1.22824e-06
1.22839e-06
1.22799e-06
1.22788e-06
1.22769e-06
1.23309e-06
1.23676e-06
1.2517e-06
1.2219e-06
1.20699e-06
1.19209e-06
1.19209e-06
1.17719e-06
1.20699e-06
1.16229e-06
1.19209e-06
1.16229e-06
1.19209e-06
1.17719e-06
1.17719e-06
1.14739e-06
1.14739e-06
1.16229e-06
1.16229e-06
1.14739e-06
1.14739e-06
1.13249e-06
1.11759e-06
1.07288e-06
1.08778e-06
1.07288e-06
1.05798e-06
1.07288e-06
1.08778e-06
1.05798e-06
1.05798e-06
1.07288e-06
1.07288e-06
1.07288e-06
1.05798e-06
1.05798e-06
1.07288e-06
1.08778e-06
1.11759e-06
1.10269e-06
1.10269e-06
1.13249e-06
1.14739e-06
1.13249e-06
1.13249e-06
1.11759e-06
1.11759e-06
1.13249e-06
1.14739e-06
1.13249e-06
1.14739e-06
1.11759e-06
1.14739e-06
1.14739e-06
1.13249e-06
1.11759e-06
1.11759e-06
1.13249e-06
1.07288e-06
1.13249e-06
1.13249e-06
1.11759e-06
1.08778e-06
1.05798e-06
1.08778e-06
1.08778e-06
1.13249e-06
1.14739e-06
1.13249e-06
1.11759e-06
1.13249e-06
1.11759e-06
1.14739e-06
1.13249e-06
1.16229e-06
1.17719e-06
1.14739e-06
1.11759e-06
1.14739e-06
)
;

boundaryField
{
    inlet
    {
        type            calculated;
        value           uniform -1.225e-06;
    }
    outlet
    {
        type            calculated;
        value           uniform 1.10269e-06;
    }
    yzfaces
    {
        type            empty;
    }
}


// ************************************************************************* //
