/*--------------------------------*- C++ -*----------------------------------*\
| =========                 |                                                 |
| \\      /  F ield         | foam-extend: Open Source CFD                    |
|  \\    /   O peration     | Version:     5.0                                |
|   \\  /    A nd           | Web:         http://www.foam-extend.org         |
|    \\/     M anipulation  |                                                 |
\*---------------------------------------------------------------------------*/
FoamFile
{
    version     2.0;
    format      ascii;
    class       volVectorField;
    location    "4";
    object      U.gas;
}
// * * * * * * * * * * * * * * * * * * * * * * * * * * * * * * * * * * * * * //

dimensions      [0 1 -1 0 0 0 0];

internalField   nonuniform List<vector> 
100
(
(0.000143493 0 0)
(0.000321465 0 0)
(0.000488473 0 0)
(0.000650272 0 0)
(0.000811324 0 0)
(0.000971327 0 0)
(0.00113299 0 0)
(0.00129777 0 0)
(0.00146622 0 0)
(0.00163642 0 0)
(0.00181434 0 0)
(0.00199925 0 0)
(0.00219731 0 0)
(0.00241554 0 0)
(0.00267238 0 0)
(0.00299619 0 0)
(0.00345426 0 0)
(0.00420778 0 0)
(0.00588838 0 0)
(0.0116848 0 0)
(0.00489438 0 0)
(0.00503924 0 0)
(0.00507848 0 0)
(0.00504815 0 0)
(0.00495692 0 0)
(0.0048961 0 0)
(0.00486569 0 0)
(0.00483527 0 0)
(0.00486569 0 0)
(0.00483527 0 0)
(0.00480486 0 0)
(0.00480486 0 0)
(0.00480486 0 0)
(0.00483527 0 0)
(0.00480486 0 0)
(0.00474404 0 0)
(0.00468322 0 0)
(0.00471363 0 0)
(0.00474404 0 0)
(0.00471363 0 0)
(0.00468322 0 0)
(0.00465281 0 0)
(0.00459199 0 0)
(0.00447035 0 0)
(0.00440953 0 0)
(0.00440953 0 0)
(0.00434871 0 0)
(0.00434871 0 0)
(0.00440953 0 0)
(0.00437912 0 0)
(0.0043183 0 0)
(0.00434871 0 0)
(0.00437912 0 0)
(0.00437912 0 0)
(0.00434871 0 0)
(0.0043183 0 0)
(0.00434871 0 0)
(0.00440953 0 0)
(0.00450076 0 0)
(0.00453117 0 0)
(0.00450076 0 0)
(0.00456158 0 0)
(0.00465281 0 0)
(0.00465281 0 0)
(0.0046224 0 0)
(0.00459199 0 0)
(0.00456158 0 0)
(0.00459199 0 0)
(0.00465281 0 0)
(0.00465281 0 0)
(0.00465281 0 0)
(0.0046224 0 0)
(0.0046224 0 0)
(0.00468322 0 0)
(0.00465281 0 0)
(0.00459199 0 0)
(0.00456158 0 0)
(0.00459199 0 0)
(0.00450076 0 0)
(0.00450076 0 0)
(0.0046224 0 0)
(0.00459199 0 0)
(0.00450076 0 0)
(0.00437912 0 0)
(0.00437912 0 0)
(0.00443994 0 0)
(0.00453117 0 0)
(0.00465281 0 0)
(0.00465281 0 0)
(0.00459199 0 0)
(0.00459199 0 0)
(0.00459199 0 0)
(0.0046224 0 0)
(0.00465281 0 0)
(0.00468322 0 0)
(0.00477445 0 0)
(0.00474404 0 0)
(0.0046224 0 0)
(0.0046224 0 0)
(0.00459199 0 0)
)
;

boundaryField
{
    inlet
    {
        type            fixedValue;
        value           uniform (0 0 0);
    }
    outlet
    {
        type            zeroGradient;
    }
    yzfaces
    {
        type            empty;
    }
}


// ************************************************************************* //
