/*--------------------------------*- C++ -*----------------------------------*\
| =========                 |                                                 |
| \\      /  F ield         | foam-extend: Open Source CFD                    |
|  \\    /   O peration     | Version:     5.0                                |
|   \\  /    A nd           | Web:         http://www.foam-extend.org         |
|    \\/     M anipulation  |                                                 |
\*---------------------------------------------------------------------------*/
FoamFile
{
    version     2.0;
    format      ascii;
    class       volScalarField;
    location    "8000";
    object      alpha.oil;
}
// * * * * * * * * * * * * * * * * * * * * * * * * * * * * * * * * * * * * * //

dimensions      [0 0 0 0 0 0 0];

internalField   nonuniform List<scalar> 
1000
(
0.18
0.16
0.22
0.19
0.23
0.17
0.16
0.15
0.18
0.2
0.2
0.16
0.19
0.18
0.18
0.22
0.24
0.22
0.15
0.23
0.17
0.24
0.19
0.18
0.15
0.19
0.23
0.18
0.22
0.23
0.21
0.2
0.22
0.22
0.19
0.24
0.24
0.23
0.16
0.19
0.18
0.169972
0.186949
0.183858
0.146671
0.124155
0.12883
0.0879323
0.0916271
0.123216
0.125578
0.0961286
0.120849
0.103166
0.0761571
0.0902162
0.0790505
0.11213
0.115052
0.113071
0.101849
0.0956039
0.0940278
0.0968444
0.0648594
0.102263
0.0877172
0.0819843
0.0643608
0.0593176
0.0816479
0.057097
0.0747657
0.0804474
0.0820731
0.0834164
0.0675584
0.0756557
0.0606242
0.0651378
0.0661131
0.0551592
0.0421241
0.0599368
0.0522943
0.0501745
0.0479872
0.0457299
0.0434116
0.0451372
0.0422125
0.0427209
0.0324742
0.023689
0.02846
0.0226559
0.0248242
0.0164105
0.0130377
0.00667917
0.21
0.21
0.19
0.16
0.15
0.18
0.15
0.17
0.24
0.18
0.22
0.2
0.2
0.17
0.18
0.22
0.17
0.18
0.19
0.24
0.23
0.18
0.19
0.15
0.2
0.17
0.21
0.21
0.23
0.21
0.24
0.19
0.16
0.21
0.19
0.23
0.2
0.2
0.2
0.19
0.159715
0.170919
0.189129
0.130252
0.119801
0.0852088
0.101183
0.0743272
0.0910711
0.0847049
0.0875762
0.0731499
0.0721136
0.100401
0.0903665
0.0646496
0.0598589
0.0788754
0.0893255
0.0915871
0.0599377
0.0665429
0.0837808
0.0750879
0.0526968
0.0831909
0.0509211
0.0769799
0.0557202
0.0709346
0.047345
0.0528091
0.0457644
0.0510052
0.044146
0.0693969
0.0674785
0.0600544
0.0583407
0.0540076
0.0473618
0.0362674
0.0518377
0.0362711
0.0373593
0.0403384
0.0489068
0.0462584
0.0307691
0.0326789
0.0307143
0.0226214
0.0269121
0.0298719
0.0218044
0.015158
0.0179068
0.0109707
0.0143176
0.00519633
0.23
0.17
0.15
0.19
0.17
0.22
0.21
0.23
0.17
0.15
0.21
0.16
0.2
0.2
0.17
0.15
0.24
0.24
0.22
0.19
0.16
0.23
0.19
0.2
0.22
0.16
0.19
0.21
0.19
0.23
0.16
0.21
0.22
0.2
0.19
0.16
0.2
0.16
0.17
0.149994
0.158707
0.1982
0.13431
0.0951868
0.109423
0.101818
0.111441
0.0927944
0.0721779
0.106246
0.0646984
0.0680382
0.0922192
0.090493
0.0807989
0.0795335
0.0783084
0.0694068
0.0722643
0.0824698
0.0589732
0.0764444
0.064455
0.0635415
0.062633
0.0823074
0.0739586
0.0593778
0.0519445
0.0543937
0.069296
0.0647808
0.0634506
0.0709766
0.0547593
0.0507824
0.0524873
0.0431894
0.0555574
0.0386029
0.050433
0.0392121
0.0574452
0.0506933
0.0377386
0.0452396
0.0351786
0.0459907
0.0455993
0.0393829
0.0320028
0.0365375
0.0322316
0.0281012
0.0289954
0.0251468
0.0139235
0.0118678
0.0144472
0.00578874
0.21
0.19
0.17
0.23
0.22
0.16
0.23
0.19
0.19
0.18
0.15
0.22
0.21
0.24
0.2
0.18
0.15
0.15
0.22
0.19
0.16
0.2
0.17
0.22
0.19
0.18
0.21
0.16
0.21
0.24
0.22
0.24
0.15
0.24
0.16
0.18
0.24
0.2
0.24
0.159955
0.225045
0.199489
0.122713
0.101403
0.104241
0.0737429
0.109648
0.0916185
0.0802774
0.06992
0.0730931
0.0803914
0.0707206
0.077903
0.0645894
0.0916716
0.0861146
0.0731187
0.06827
0.0598545
0.0775988
0.0872663
0.0785111
0.0806541
0.0585124
0.050895
0.066991
0.052678
0.0746638
0.0667706
0.0561151
0.0735278
0.0508548
0.070539
0.0601489
0.0503372
0.0574766
0.0479868
0.0572542
0.0454335
0.051594
0.0499233
0.0505023
0.0507505
0.031638
0.0408296
0.031197
0.0318312
0.0339658
0.0270515
0.0288881
0.0255905
0.0267289
0.0310146
0.0239003
0.0188365
0.0135358
0.0135156
0.00849364
0.00641056
0.15
0.24
0.17
0.23
0.24
0.23
0.19
0.23
0.15
0.22
0.17
0.17
0.24
0.24
0.21
0.22
0.19
0.15
0.16
0.17
0.24
0.24
0.2
0.22
0.24
0.2
0.23
0.24
0.16
0.23
0.2
0.22
0.22
0.16
0.17
0.21
0.21
0.22
0.21
0.239696
0.141947
0.15911
0.129747
0.113953
0.11042
0.0795212
0.0916309
0.107546
0.0996265
0.0927093
0.0864294
0.067866
0.0962019
0.0615248
0.0607796
0.0840876
0.0827153
0.0736279
0.064919
0.0753826
0.0667989
0.0658687
0.0829791
0.0531341
0.0699881
0.0757425
0.0676022
0.0531624
0.0655332
0.0772414
0.0692541
0.0647293
0.0482911
0.0474993
0.0613017
0.0427976
0.0420803
0.0661792
0.0428609
0.0630114
0.0610317
0.0491572
0.042933
0.0556445
0.0400727
0.0474011
0.0433334
0.0473318
0.0372398
0.0353079
0.0349653
0.0342057
0.0329298
0.0284292
0.0195058
0.0153681
0.0154838
0.0169758
0.0101522
0.00653238
0.2
0.22
0.2
0.19
0.17
0.17
0.21
0.24
0.18
0.16
0.22
0.2
0.18
0.17
0.17
0.16
0.18
0.16
0.16
0.19
0.23
0.16
0.21
0.15
0.22
0.15
0.2
0.17
0.24
0.16
0.22
0.19
0.21
0.23
0.15
0.18
0.18
0.22
0.229837
0.143799
0.161458
0.115307
0.08989
0.115169
0.0930099
0.0943267
0.0686692
0.0674749
0.0664339
0.0654986
0.0775516
0.0678702
0.0920998
0.086349
0.0768389
0.0637699
0.0708808
0.0738185
0.0574583
0.0871491
0.0595952
0.0809921
0.0687993
0.0856641
0.0665641
0.075938
0.0779939
0.0499036
0.0788479
0.0707776
0.0504592
0.0714743
0.0699236
0.0564485
0.0553414
0.0599233
0.0557423
0.0517279
0.050531
0.059706
0.0578788
0.0511189
0.0447713
0.0388177
0.0398997
0.0343037
0.0374058
0.0460548
0.0456296
0.0411568
0.0301739
0.0269235
0.0328567
0.0246257
0.030222
0.0176407
0.0158565
0.0209095
0.0160768
0.00982796
0.18
0.15
0.16
0.22
0.19
0.21
0.23
0.23
0.15
0.19
0.17
0.24
0.21
0.22
0.23
0.23
0.18
0.24
0.17
0.22
0.17
0.2
0.19
0.2
0.17
0.15
0.2
0.18
0.15
0.2
0.22
0.16
0.2
0.18
0.19
0.23
0.24
0.22
0.149981
0.187229
0.129393
0.128148
0.127731
0.129984
0.0844783
0.105056
0.091657
0.106875
0.0865303
0.0975229
0.0664412
0.0614643
0.0607319
0.0920366
0.0629068
0.0815829
0.0688411
0.0905669
0.0741325
0.0693689
0.0539664
0.0640072
0.0666128
0.0759661
0.0508749
0.0602883
0.0527819
0.0650763
0.0575455
0.0629024
0.0710052
0.0452907
0.0535395
0.0613222
0.0685414
0.0556208
0.0489022
0.0637987
0.0541296
0.045078
0.0390227
0.0404438
0.0509326
0.0378995
0.045386
0.0435757
0.0416797
0.0321427
0.0380343
0.032465
0.0322072
0.0225082
0.0240187
0.0301454
0.0186183
0.0157868
0.0226286
0.0134431
0.0127763
0.00535793
0.19
0.15
0.19
0.17
0.21
0.19
0.16
0.24
0.23
0.22
0.23
0.18
0.18
0.22
0.23
0.21
0.18
0.19
0.16
0.16
0.21
0.21
0.24
0.24
0.15
0.15
0.15
0.17
0.2
0.18
0.18
0.21
0.22
0.16
0.15
0.17
0.23
0.23
0.229904
0.164673
0.164958
0.106287
0.143099
0.0956898
0.115852
0.114337
0.109414
0.0748985
0.103705
0.0631855
0.0872464
0.0733937
0.0923807
0.0748926
0.0699036
0.0766173
0.090554
0.0555649
0.0549497
0.0760778
0.0713091
0.0596976
0.0831997
0.0544228
0.0806121
0.0592757
0.0486605
0.0640667
0.0692443
0.0586182
0.0606154
0.0564818
0.0612574
0.0684953
0.0444747
0.0627837
0.0398349
0.0443149
0.0382594
0.0425097
0.0586188
0.0353513
0.0552721
0.0508849
0.0360728
0.0472102
0.0390926
0.0317133
0.0268069
0.0257457
0.0312234
0.0355484
0.0283824
0.0234304
0.0202022
0.0161121
0.0223089
0.0174688
0.0108238
0.00918066
0.18
0.2
0.21
0.15
0.22
0.22
0.17
0.19
0.17
0.15
0.23
0.18
0.17
0.18
0.18
0.17
0.2
0.24
0.2
0.22
0.15
0.2
0.19
0.22
0.22
0.18
0.17
0.19
0.24
0.24
0.17
0.15
0.17
0.17
0.15
0.18
0.22
0.179985
0.236815
0.170618
0.161539
0.0991586
0.101129
0.0854399
0.0730303
0.088798
0.073219
0.0969756
0.0615695
0.0890269
0.059419
0.0743185
0.076975
0.0908565
0.0556738
0.0660871
0.0869439
0.0533296
0.0774119
0.0830505
0.0747233
0.0601108
0.0626011
0.06169
0.063987
0.0535288
0.0497185
0.0705925
0.0571631
0.0651209
0.0580224
0.0569557
0.0558747
0.0575138
0.0509077
0.0498838
0.0591066
0.0424834
0.0416202
0.0503274
0.0535542
0.0427559
0.0436985
0.0359184
0.0410278
0.039496
0.0397803
0.0379263
0.0256842
0.0246571
0.0298942
0.0295565
0.0233044
0.0216703
0.0281427
0.022311
0.0127626
0.0109487
0.0120025
0.00834111
0.24
0.17
0.18
0.23
0.15
0.17
0.2
0.24
0.2
0.23
0.16
0.22
0.21
0.19
0.21
0.24
0.23
0.16
0.15
0.19
0.17
0.21
0.23
0.2
0.19
0.23
0.15
0.22
0.22
0.23
0.17
0.16
0.19
0.2
0.24
0.21
0.16
0.209761
0.190016
0.145527
0.122293
0.115221
0.107425
0.0686418
0.0618503
0.0959311
0.0721774
0.0883482
0.0814858
0.0789555
0.0600788
0.0623223
0.07088
0.050453
0.0623071
0.0643287
0.0541687
0.0534458
0.0674239
0.0661331
0.0423025
0.0503271
0.0635199
0.0650329
0.0477775
0.0497942
0.0490943
0.0560391
0.0424787
0.0518385
0.0508872
0.0499279
0.0489528
0.0365356
0.0338094
0.0512539
0.0499391
0.0422467
0.0433499
0.0462416
0.0291828
0.038252
0.0389965
0.0305017
0.0297085
0.0373766
0.0243465
0.0268426
0.0319801
0.0274055
0.0273599
0.0192291
0.0207514
0.0251474
0.0153636
0.020797
0.0160668
0.0125422
0.0095717
0.00494159
)
;

boundaryField
{
    inlet
    {
        type            fixedValue;
        value           uniform 0;
    }
    outlet
    {
        type            zeroGradient;
    }
    walls
    {
        type            zeroGradient;
    }
}


// ************************************************************************* //
