/*--------------------------------*- C++ -*----------------------------------*\
| =========                 |                                                 |
| \\      /  F ield         | foam-extend: Open Source CFD                    |
|  \\    /   O peration     | Version:     5.0                                |
|   \\  /    A nd           | Web:         http://www.foam-extend.org         |
|    \\/     M anipulation  |                                                 |
\*---------------------------------------------------------------------------*/
FoamFile
{
    version     2.0;
    format      ascii;
    class       volScalarField;
    location    "8000";
    object      alpha.gas;
}
// * * * * * * * * * * * * * * * * * * * * * * * * * * * * * * * * * * * * * //

dimensions      [0 0 0 0 0 0 0];

internalField   nonuniform List<scalar> 
1000
(
0
0
0
0
0
0
0
0
0
0
0
0
0
0
0
0
0
0
0
0
0
0
0
0
0
0
0
0
0
0
0
0
0
0
0
0
0
0
0
1.27342e-16
2.48085e-09
2.75565e-05
0.00305068
0.0261422
0.0533295
0.0658452
0.0811704
0.0620677
0.0683729
0.0967843
0.104422
0.0838714
0.109151
0.0968338
0.0738429
0.0897838
0.0809495
0.11787
0.124948
0.126929
0.118151
0.114396
0.115972
0.123156
0.0851406
0.137737
0.122283
0.118016
0.0956392
0.0906824
0.128352
0.092903
0.125234
0.139553
0.147927
0.156584
0.132442
0.154344
0.129376
0.144862
0.153887
0.134841
0.107876
0.160063
0.147706
0.149825
0.152013
0.15427
0.156588
0.174863
0.177788
0.197279
0.167526
0.136311
0.18154
0.167344
0.215176
0.18359
0.196962
0.173321
0
0
0
0
0
0
0
0
0
0
0
0
0
0
0
0
0
0
0
0
0
0
0
0
0
0
0
0
0
0
0
0
0
0
0
0
0
0
1.45225e-13
2.61378e-07
0.000284953
0.00908092
0.050871
0.0797477
0.100199
0.0847912
0.108817
0.0856728
0.108929
0.105295
0.112424
0.0968501
0.0978864
0.139599
0.129633
0.0953504
0.0901411
0.121125
0.140674
0.148413
0.100062
0.113457
0.146219
0.134912
0.0973032
0.156809
0.0990789
0.15302
0.11428
0.149065
0.102655
0.117191
0.104236
0.118995
0.105854
0.170603
0.172522
0.159946
0.161659
0.155992
0.142638
0.113733
0.168162
0.123729
0.132641
0.149662
0.191093
0.193742
0.139231
0.157321
0.159286
0.127379
0.163088
0.200128
0.168196
0.134842
0.182093
0.139029
0.225682
0.154804
0
0
0
0
0
0
0
0
0
0
0
0
0
0
0
0
0
0
0
0
0
0
0
0
0
0
0
0
0
0
0
0
0
0
0
0
0
0
1.07022e-10
5.60617e-06
0.0012931
0.0218005
0.0556898
0.0648132
0.0905773
0.0981815
0.118559
0.107206
0.0878221
0.133754
0.0853016
0.0919618
0.127781
0.129507
0.119201
0.120467
0.121692
0.110593
0.117736
0.13753
0.101027
0.133556
0.115545
0.116459
0.117367
0.157693
0.146041
0.120622
0.108055
0.115606
0.150704
0.145219
0.146549
0.169023
0.135241
0.129218
0.137513
0.116811
0.154443
0.111397
0.149567
0.120788
0.182555
0.169307
0.132261
0.16476
0.134821
0.184009
0.194401
0.180617
0.157997
0.193462
0.187768
0.181899
0.211005
0.214853
0.146077
0.148132
0.225553
0.164211
0
0
0
0
0
0
0
0
0
0
0
0
0
0
0
0
0
0
0
0
0
0
0
0
0
0
0
0
0
0
0
0
0
0
0
0
0
9.83973e-18
6.17239e-09
4.49566e-05
0.00495539
0.0405109
0.0672865
0.0785972
0.0957589
0.0762571
0.120352
0.108382
0.0997226
0.09008
0.0969069
0.109609
0.0992794
0.112097
0.0954106
0.138328
0.133885
0.116881
0.11173
0.100146
0.132401
0.152734
0.141489
0.149346
0.111488
0.099105
0.133009
0.107322
0.155336
0.143229
0.123885
0.166472
0.119145
0.169461
0.149851
0.129663
0.152523
0.132013
0.162746
0.134567
0.158406
0.160077
0.169498
0.17925
0.118362
0.15917
0.128803
0.138169
0.156034
0.132949
0.151112
0.14441
0.163271
0.208985
0.1861
0.171163
0.146464
0.176484
0.151506
0.173589
0
0
0
0
0
0
0
0
0
0
0
0
0
0
0
0
0
0
0
0
0
0
0
0
0
0
0
0
0
0
0
0
0
0
0
0
0
2.69515e-14
1.26487e-07
0.000303982
0.008053
0.04089
0.0702525
0.0860468
0.0995805
0.0804788
0.0983691
0.122454
0.120373
0.117291
0.113571
0.092134
0.133798
0.0884752
0.0892204
0.125912
0.127285
0.116372
0.105081
0.124617
0.113201
0.114131
0.147021
0.0968659
0.130012
0.144257
0.132398
0.106838
0.134467
0.162759
0.150746
0.145271
0.111709
0.112501
0.148698
0.107202
0.10792
0.173821
0.117139
0.176989
0.178968
0.150843
0.137067
0.184355
0.139927
0.172599
0.166667
0.192668
0.16276
0.164692
0.175035
0.185794
0.19707
0.191571
0.150494
0.134632
0.154516
0.203024
0.169848
0.173468
0
0
0
0
0
0
0
0
0
0
0
0
0
0
0
0
0
0
0
0
0
0
0
0
0
0
0
0
0
0
0
0
0
0
0
0
2.23087e-15
3.83122e-08
0.00016292
0.00620056
0.0385423
0.0646926
0.07011
0.104831
0.0969901
0.105673
0.0813308
0.0825251
0.0835661
0.0845014
0.102448
0.0921298
0.1279
0.123651
0.113161
0.0962301
0.109119
0.116182
0.0925417
0.142851
0.100405
0.139008
0.121201
0.154336
0.123436
0.144062
0.152006
0.100096
0.161152
0.149222
0.109541
0.158526
0.160076
0.133552
0.134659
0.150077
0.144258
0.138272
0.139469
0.170294
0.172121
0.158881
0.145229
0.131182
0.1401
0.125696
0.142594
0.183945
0.19437
0.188843
0.149826
0.143076
0.187143
0.155374
0.209778
0.142359
0.144143
0.219091
0.223923
0.220172
0
0
0
0
0
0
0
0
0
0
0
0
0
0
0
0
0
0
0
0
0
0
0
0
0
0
0
0
0
0
0
0
0
0
0
0
0
1.17852e-09
1.87488e-05
0.00277085
0.0206074
0.0518525
0.0822688
0.110016
0.0855217
0.114944
0.108343
0.133125
0.11347
0.132477
0.0935588
0.0885357
0.0892681
0.137963
0.0970932
0.128417
0.111159
0.149433
0.125868
0.120631
0.0960336
0.115993
0.123387
0.144034
0.0991251
0.119712
0.107218
0.134924
0.122454
0.137098
0.158995
0.104709
0.12646
0.148678
0.171459
0.144379
0.131098
0.176201
0.15587
0.134922
0.120977
0.129556
0.169067
0.1321
0.164614
0.166424
0.16832
0.137857
0.171966
0.157535
0.167793
0.127492
0.145981
0.199855
0.141382
0.134213
0.217371
0.166557
0.207224
0.154642
0
0
0
0
0
0
0
0
0
0
0
0
0
0
0
0
0
0
0
0
0
0
0
0
0
0
0
0
0
0
0
0
0
0
0
0
2.42855e-16
1.32898e-08
9.57159e-05
0.00532675
0.0350416
0.0537125
0.0969006
0.0843102
0.114148
0.125663
0.130586
0.0951015
0.136295
0.0868145
0.122754
0.106606
0.137619
0.115107
0.110096
0.123383
0.149446
0.0944351
0.0950503
0.133922
0.128691
0.110302
0.1568
0.105577
0.159388
0.120724
0.10134
0.135933
0.150756
0.131382
0.139385
0.133518
0.148743
0.171505
0.115525
0.167216
0.110165
0.125685
0.111741
0.12749
0.181381
0.114649
0.184728
0.179115
0.133927
0.18279
0.160907
0.138287
0.123193
0.124254
0.158777
0.194452
0.171618
0.15657
0.149798
0.133888
0.207691
0.202531
0.169176
0.210819
0
0
0
0
0
0
0
0
0
0
0
0
0
0
0
0
0
0
0
0
0
0
0
0
0
0
0
0
0
0
0
0
0
0
0
0
5.29462e-10
1.52267e-05
0.00318482
0.029382
0.0784611
0.0808414
0.0988712
0.0945601
0.0869697
0.111202
0.096781
0.133024
0.0884305
0.130973
0.090581
0.115681
0.123025
0.149143
0.0943262
0.113913
0.153056
0.0966704
0.142588
0.15695
0.145277
0.119889
0.127399
0.12831
0.136013
0.116471
0.110282
0.159408
0.132837
0.154879
0.141978
0.143044
0.144125
0.152486
0.139092
0.140116
0.170893
0.127517
0.12838
0.159673
0.176446
0.147244
0.156301
0.134082
0.158972
0.160504
0.17022
0.172074
0.124316
0.125343
0.160106
0.170444
0.146696
0.14833
0.211857
0.197689
0.137237
0.139051
0.187998
0.201659
0
0
0
0
0
0
0
0
0
0
0
0
0
0
0
0
0
0
0
0
0
0
0
0
0
0
0
0
0
0
0
0
0
0
0
2.62187e-14
9.65223e-08
0.00023897
0.00998409
0.0444729
0.0777074
0.104779
0.122575
0.0913582
0.0881497
0.144069
0.117823
0.151652
0.148514
0.151044
0.119921
0.127678
0.14912
0.109547
0.137693
0.145671
0.125831
0.126554
0.162576
0.163867
0.107697
0.129673
0.16648
0.174967
0.132223
0.140206
0.140906
0.163961
0.127521
0.158161
0.159113
0.160072
0.161047
0.123464
0.116191
0.178746
0.180061
0.157753
0.16665
0.183758
0.120817
0.161748
0.171003
0.139498
0.140291
0.182623
0.125654
0.143157
0.17802
0.162595
0.17264
0.130771
0.149249
0.194853
0.134636
0.199203
0.183933
0.177458
0.180428
0.155058
)
;

boundaryField
{
    inlet
    {
        type            fixedValue;
        value           uniform 0.2;
    }
    outlet
    {
        type            zeroGradient;
    }
    walls
    {
        type            zeroGradient;
    }
}


// ************************************************************************* //
