/*--------------------------------*- C++ -*----------------------------------*\
| =========                 |                                                 |
| \\      /  F ield         | foam-extend: Open Source CFD                    |
|  \\    /   O peration     | Version:     5.0                                |
|   \\  /    A nd           | Web:         http://www.foam-extend.org         |
|    \\/     M anipulation  |                                                 |
\*---------------------------------------------------------------------------*/
FoamFile
{
    version     2.0;
    format      ascii;
    class       volScalarField;
    location    "8000";
    object      p;
}
// * * * * * * * * * * * * * * * * * * * * * * * * * * * * * * * * * * * * * //

dimensions      [1 -1 -2 0 0 0 0];

internalField   nonuniform List<scalar> 
1000
(
0.101067
0.103151
0.105208
0.107248
0.109277
0.111297
0.113312
0.115323
0.117331
0.119337
0.121342
0.123345
0.125347
0.127349
0.12935
0.131351
0.133352
0.135352
0.137353
0.139353
0.141354
0.143354
0.145355
0.147355
0.149356
0.151357
0.153359
0.155361
0.157364
0.159368
0.161373
0.16338
0.165389
0.167402
0.16942
0.171443
0.173476
0.175519
0.177581
0.179669
0.181806
0.184042
0.186436
0.189159
0.192055
0.194819
0.197455
0.199994
0.202473
0.204905
0.207291
0.209639
0.21196
0.21425
0.216511
0.218749
0.220963
0.223157
0.225327
0.227472
0.229592
0.231691
0.233769
0.235823
0.237855
0.239869
0.241858
0.243825
0.245769
0.247694
0.249598
0.251478
0.253339
0.255179
0.256994
0.258787
0.260554
0.262297
0.264014
0.265707
0.267376
0.269019
0.270637
0.272234
0.273803
0.275346
0.276863
0.278352
0.279811
0.281242
0.282643
0.284013
0.285349
0.286653
0.287926
0.289162
0.290365
0.291526
0.292649
0.29372
0.101038
0.1031
0.105147
0.107181
0.109206
0.111224
0.113238
0.115248
0.117255
0.11926
0.121264
0.123267
0.125269
0.127271
0.129272
0.131273
0.133273
0.135274
0.137274
0.139275
0.141275
0.143275
0.145276
0.147277
0.149277
0.151278
0.15328
0.155282
0.157284
0.159288
0.161292
0.163299
0.165308
0.167319
0.169335
0.171356
0.173385
0.175424
0.177475
0.179542
0.181628
0.183889
0.186575
0.189413
0.192197
0.194878
0.19748
0.2
0.20247
0.204893
0.207275
0.209623
0.211942
0.214234
0.216496
0.218732
0.220945
0.223138
0.225308
0.227453
0.229572
0.231673
0.233751
0.235806
0.237837
0.239852
0.24184
0.243809
0.245753
0.247679
0.249581
0.251463
0.253323
0.255161
0.256976
0.25877
0.260538
0.26228
0.263999
0.265692
0.267361
0.269004
0.270626
0.272219
0.273788
0.275332
0.276851
0.27834
0.279798
0.281229
0.282629
0.283998
0.285338
0.286646
0.287917
0.289151
0.290353
0.291514
0.292642
0.293711
0.101023
0.103064
0.105097
0.107123
0.109142
0.111157
0.113167
0.115175
0.117181
0.119185
0.121188
0.12319
0.125192
0.127193
0.129194
0.131195
0.133195
0.135196
0.137196
0.139196
0.141197
0.143197
0.145197
0.147198
0.149198
0.151199
0.1532
0.155202
0.157204
0.159207
0.16121
0.163216
0.165223
0.167232
0.169245
0.171262
0.173285
0.175315
0.177354
0.179402
0.181481
0.183881
0.186736
0.189562
0.192303
0.194946
0.197519
0.200022
0.202476
0.204893
0.207267
0.209613
0.211932
0.214221
0.216482
0.218719
0.220932
0.223122
0.22529
0.227435
0.229555
0.231656
0.233733
0.235788
0.237821
0.239835
0.241825
0.243792
0.245738
0.247664
0.249569
0.251451
0.25331
0.255148
0.256961
0.258751
0.260519
0.262262
0.263982
0.265675
0.267346
0.26899
0.270613
0.272207
0.273773
0.275318
0.276834
0.278325
0.279785
0.281215
0.282615
0.283988
0.285328
0.286636
0.287909
0.289144
0.290341
0.291505
0.292633
0.293704
0.101013
0.103036
0.105056
0.107071
0.109083
0.111092
0.113099
0.115104
0.117108
0.11911
0.121112
0.123114
0.125115
0.127116
0.129116
0.131117
0.133117
0.135117
0.137118
0.139118
0.141118
0.143118
0.145118
0.147119
0.149119
0.15112
0.15312
0.155121
0.157123
0.159125
0.161127
0.16313
0.165135
0.167142
0.16915
0.171162
0.173178
0.175198
0.177225
0.179263
0.181385
0.183989
0.18689
0.189689
0.192388
0.194996
0.197552
0.200042
0.202485
0.204891
0.207263
0.209606
0.21192
0.214207
0.216467
0.218706
0.220919
0.223106
0.225272
0.227416
0.229539
0.23164
0.233718
0.235773
0.237804
0.239816
0.241807
0.243775
0.245725
0.247651
0.249554
0.251437
0.253294
0.255132
0.256945
0.258734
0.260502
0.262246
0.263967
0.265662
0.267333
0.268979
0.2706
0.272195
0.27376
0.275304
0.276819
0.278309
0.27977
0.281199
0.282601
0.283973
0.285315
0.286625
0.287896
0.289131
0.290331
0.291498
0.292621
0.293698
0.101004
0.103012
0.105018
0.107023
0.109027
0.111031
0.113033
0.115035
0.117036
0.119037
0.121037
0.123038
0.125038
0.127039
0.129039
0.131039
0.133039
0.135039
0.137039
0.139039
0.141039
0.143039
0.14504
0.14704
0.14904
0.15104
0.15304
0.155041
0.157041
0.159042
0.161043
0.163044
0.165046
0.167049
0.169053
0.171058
0.173065
0.175075
0.177088
0.179126
0.181383
0.184122
0.187017
0.189795
0.192462
0.195045
0.197578
0.200061
0.202496
0.204894
0.20726
0.209597
0.211911
0.214193
0.216452
0.21869
0.220902
0.22309
0.225254
0.227399
0.22952
0.231621
0.2337
0.235754
0.237788
0.2398
0.24179
0.243758
0.245709
0.247636
0.249539
0.251421
0.253277
0.255114
0.256928
0.258716
0.260484
0.26223
0.263949
0.265648
0.267319
0.268963
0.270583
0.272179
0.273745
0.275289
0.276806
0.278296
0.279756
0.281186
0.282588
0.28396
0.285303
0.28661
0.287881
0.289117
0.290322
0.291492
0.292616
0.293694
0.100996
0.102988
0.104982
0.106977
0.108973
0.110969
0.112967
0.114965
0.116964
0.118963
0.120963
0.122962
0.124962
0.126962
0.128961
0.130961
0.132961
0.134961
0.136961
0.138961
0.140961
0.142961
0.144961
0.146961
0.14896
0.15096
0.15296
0.15496
0.156959
0.158959
0.160958
0.162957
0.164956
0.166955
0.168954
0.170952
0.172951
0.174947
0.176929
0.178996
0.181504
0.184333
0.187153
0.189892
0.192525
0.195092
0.197603
0.200071
0.202499
0.204892
0.207255
0.209589
0.2119
0.214183
0.216439
0.218673
0.220885
0.223073
0.225237
0.227382
0.229501
0.231603
0.233681
0.235737
0.237769
0.239782
0.241773
0.243741
0.245692
0.247619
0.249521
0.251404
0.253263
0.255098
0.256912
0.258702
0.260469
0.262213
0.263933
0.265631
0.267302
0.268947
0.270567
0.272161
0.273729
0.275272
0.276789
0.27828
0.279741
0.281171
0.282571
0.283942
0.285286
0.286594
0.287869
0.289105
0.290311
0.291484
0.292612
0.293691
0.100987
0.102964
0.104944
0.106929
0.108917
0.110908
0.112901
0.114896
0.116892
0.11889
0.120888
0.122886
0.124885
0.126884
0.128884
0.130883
0.132883
0.134883
0.136883
0.138882
0.140882
0.142882
0.144882
0.146881
0.148881
0.150881
0.15288
0.154879
0.156878
0.158876
0.160874
0.16287
0.164866
0.166861
0.168854
0.170847
0.172839
0.174835
0.176844
0.178943
0.181516
0.184411
0.187258
0.189976
0.192586
0.195141
0.197638
0.200095
0.202512
0.204898
0.207252
0.209582
0.211889
0.214172
0.216426
0.21866
0.22087
0.223058
0.225222
0.227365
0.229484
0.231584
0.233663
0.235719
0.23775
0.239762
0.241753
0.243724
0.245674
0.247601
0.249506
0.251385
0.253245
0.255083
0.256897
0.258686
0.260452
0.262198
0.263917
0.265612
0.267284
0.26893
0.270552
0.272146
0.273716
0.275259
0.276774
0.278261
0.279722
0.281153
0.282556
0.283927
0.285269
0.28658
0.287853
0.289094
0.290305
0.291473
0.292602
0.293678
0.100977
0.102936
0.104903
0.106877
0.108858
0.110844
0.112833
0.114825
0.116819
0.118815
0.120812
0.12281
0.124808
0.126807
0.128806
0.130805
0.132805
0.134805
0.136804
0.138804
0.140804
0.142803
0.144803
0.146802
0.148802
0.150801
0.1528
0.154798
0.156796
0.158794
0.16079
0.162785
0.164778
0.166768
0.168756
0.170741
0.172724
0.174712
0.176728
0.178925
0.181621
0.184528
0.187345
0.190024
0.192631
0.195174
0.197663
0.200108
0.202522
0.204899
0.207252
0.209579
0.211883
0.214161
0.216414
0.218647
0.220857
0.223041
0.225205
0.22735
0.229469
0.231567
0.233647
0.2357
0.237735
0.239745
0.241735
0.243708
0.245658
0.247584
0.249489
0.25137
0.25323
0.255067
0.256879
0.258671
0.260436
0.262179
0.263898
0.265596
0.267269
0.268914
0.270537
0.272132
0.2737
0.275245
0.276759
0.278244
0.279703
0.281134
0.28254
0.283914
0.285256
0.286565
0.287841
0.289083
0.290294
0.291463
0.292589
0.293671
0.100962
0.1029
0.104854
0.106819
0.108794
0.110776
0.112762
0.114752
0.116745
0.11874
0.120736
0.122733
0.124731
0.126729
0.128728
0.130727
0.132727
0.134726
0.136726
0.138725
0.140725
0.142725
0.144724
0.146724
0.148723
0.150722
0.15272
0.154718
0.156716
0.158712
0.160707
0.162701
0.164692
0.166679
0.168661
0.170637
0.172604
0.174561
0.176563
0.179008
0.181858
0.184678
0.187416
0.190059
0.192645
0.195185
0.19767
0.200119
0.202524
0.204902
0.207247
0.209573
0.211874
0.214151
0.216401
0.218633
0.220843
0.223026
0.225193
0.227337
0.229455
0.231552
0.23363
0.235685
0.237718
0.239728
0.241719
0.243692
0.245641
0.247569
0.249473
0.251355
0.253214
0.25505
0.256863
0.258655
0.260423
0.262165
0.263885
0.265582
0.267255
0.2689
0.270521
0.272115
0.273685
0.275229
0.276744
0.278231
0.279688
0.28112
0.282525
0.283899
0.285241
0.286553
0.287834
0.289077
0.290281
0.291449
0.292578
0.293659
0.100933
0.102849
0.104792
0.106752
0.108723
0.110703
0.112688
0.114677
0.116669
0.118663
0.120659
0.122655
0.124653
0.126651
0.12865
0.130649
0.132648
0.134648
0.136647
0.138647
0.140647
0.142646
0.144646
0.146645
0.148644
0.150643
0.152641
0.154639
0.156636
0.158632
0.160627
0.162619
0.164609
0.166594
0.168573
0.170542
0.172494
0.174419
0.176465
0.179095
0.181963
0.184765
0.187468
0.190079
0.192655
0.195199
0.197679
0.200127
0.202532
0.204904
0.207245
0.209567
0.211867
0.214139
0.216392
0.218623
0.22083
0.223016
0.225183
0.227325
0.22944
0.231539
0.23362
0.235675
0.237705
0.239716
0.241708
0.24368
0.245627
0.247556
0.249461
0.251343
0.253201
0.255035
0.256848
0.258644
0.260413
0.262155
0.263875
0.265572
0.26724
0.268888
0.27051
0.272103
0.273672
0.275217
0.276729
0.278218
0.279679
0.281111
0.282515
0.283886
0.28523
0.286545
0.287822
0.289069
0.290275
0.291442
0.292569
0.293645
)
;

boundaryField
{
    inlet
    {
        type            fluxPressure;
        gradient        nonuniform List<scalar> 10(0.01 0.01 0.01 0.01 0.01 0.01 0.01 0.01 0.01 0.01);
        value           nonuniform List<scalar> 10(0.29422 0.294211 0.294204 0.294198 0.294194 0.294191 0.294178 0.294171 0.294159 0.294145);
    }
    outlet
    {
        type            fixedValue;
        value           uniform 0.1;
    }
    walls
    {
        type            fluxPressure;
        gradient        uniform 0;
        value           nonuniform List<scalar> 
2200
(
0.101067
0.103151
0.105208
0.107248
0.109277
0.111297
0.113312
0.115323
0.117331
0.119337
0.121342
0.123345
0.125347
0.127349
0.12935
0.131351
0.133352
0.135352
0.137353
0.139353
0.141354
0.143354
0.145355
0.147355
0.149356
0.151357
0.153359
0.155361
0.157364
0.159368
0.161373
0.16338
0.165389
0.167402
0.16942
0.171443
0.173476
0.175519
0.177581
0.179669
0.181806
0.184042
0.186436
0.189159
0.192055
0.194819
0.197455
0.199994
0.202473
0.204905
0.207291
0.209639
0.21196
0.21425
0.216511
0.218749
0.220963
0.223157
0.225327
0.227472
0.229592
0.231691
0.233769
0.235823
0.237855
0.239869
0.241858
0.243825
0.245769
0.247694
0.249598
0.251478
0.253339
0.255179
0.256994
0.258787
0.260554
0.262297
0.264014
0.265707
0.267376
0.269019
0.270637
0.272234
0.273803
0.275346
0.276863
0.278352
0.279811
0.281242
0.282643
0.284013
0.285349
0.286653
0.287926
0.289162
0.290365
0.291526
0.292649
0.29372
0.101038
0.1031
0.105147
0.107181
0.109206
0.111224
0.113238
0.115248
0.117255
0.11926
0.121264
0.123267
0.125269
0.127271
0.129272
0.131273
0.133273
0.135274
0.137274
0.139275
0.141275
0.143275
0.145276
0.147277
0.149277
0.151278
0.15328
0.155282
0.157284
0.159288
0.161292
0.163299
0.165308
0.167319
0.169335
0.171356
0.173385
0.175424
0.177475
0.179542
0.181628
0.183889
0.186575
0.189413
0.192197
0.194878
0.19748
0.2
0.20247
0.204893
0.207275
0.209623
0.211942
0.214234
0.216496
0.218732
0.220945
0.223138
0.225308
0.227453
0.229572
0.231673
0.233751
0.235806
0.237837
0.239852
0.24184
0.243809
0.245753
0.247679
0.249581
0.251463
0.253323
0.255161
0.256976
0.25877
0.260538
0.26228
0.263999
0.265692
0.267361
0.269004
0.270626
0.272219
0.273788
0.275332
0.276851
0.27834
0.279798
0.281229
0.282629
0.283998
0.285338
0.286646
0.287917
0.289151
0.290353
0.291514
0.292642
0.293711
0.101023
0.103064
0.105097
0.107123
0.109142
0.111157
0.113167
0.115175
0.117181
0.119185
0.121188
0.12319
0.125192
0.127193
0.129194
0.131195
0.133195
0.135196
0.137196
0.139196
0.141197
0.143197
0.145197
0.147198
0.149198
0.151199
0.1532
0.155202
0.157204
0.159207
0.16121
0.163216
0.165223
0.167232
0.169245
0.171262
0.173285
0.175315
0.177354
0.179402
0.181481
0.183881
0.186736
0.189562
0.192303
0.194946
0.197519
0.200022
0.202476
0.204893
0.207267
0.209613
0.211932
0.214221
0.216482
0.218719
0.220932
0.223122
0.22529
0.227435
0.229555
0.231656
0.233733
0.235788
0.237821
0.239835
0.241825
0.243792
0.245738
0.247664
0.249569
0.251451
0.25331
0.255148
0.256961
0.258751
0.260519
0.262262
0.263982
0.265675
0.267346
0.26899
0.270613
0.272207
0.273773
0.275318
0.276834
0.278325
0.279785
0.281215
0.282615
0.283988
0.285328
0.286636
0.287909
0.289144
0.290341
0.291505
0.292633
0.293704
0.101013
0.103036
0.105056
0.107071
0.109083
0.111092
0.113099
0.115104
0.117108
0.11911
0.121112
0.123114
0.125115
0.127116
0.129116
0.131117
0.133117
0.135117
0.137118
0.139118
0.141118
0.143118
0.145118
0.147119
0.149119
0.15112
0.15312
0.155121
0.157123
0.159125
0.161127
0.16313
0.165135
0.167142
0.16915
0.171162
0.173178
0.175198
0.177225
0.179263
0.181385
0.183989
0.18689
0.189689
0.192388
0.194996
0.197552
0.200042
0.202485
0.204891
0.207263
0.209606
0.21192
0.214207
0.216467
0.218706
0.220919
0.223106
0.225272
0.227416
0.229539
0.23164
0.233718
0.235773
0.237804
0.239816
0.241807
0.243775
0.245725
0.247651
0.249554
0.251437
0.253294
0.255132
0.256945
0.258734
0.260502
0.262246
0.263967
0.265662
0.267333
0.268979
0.2706
0.272195
0.27376
0.275304
0.276819
0.278309
0.27977
0.281199
0.282601
0.283973
0.285315
0.286625
0.287896
0.289131
0.290331
0.291498
0.292621
0.293698
0.101004
0.103012
0.105018
0.107023
0.109027
0.111031
0.113033
0.115035
0.117036
0.119037
0.121037
0.123038
0.125038
0.127039
0.129039
0.131039
0.133039
0.135039
0.137039
0.139039
0.141039
0.143039
0.14504
0.14704
0.14904
0.15104
0.15304
0.155041
0.157041
0.159042
0.161043
0.163044
0.165046
0.167049
0.169053
0.171058
0.173065
0.175075
0.177088
0.179126
0.181383
0.184122
0.187017
0.189795
0.192462
0.195045
0.197578
0.200061
0.202496
0.204894
0.20726
0.209597
0.211911
0.214193
0.216452
0.21869
0.220902
0.22309
0.225254
0.227399
0.22952
0.231621
0.2337
0.235754
0.237788
0.2398
0.24179
0.243758
0.245709
0.247636
0.249539
0.251421
0.253277
0.255114
0.256928
0.258716
0.260484
0.26223
0.263949
0.265648
0.267319
0.268963
0.270583
0.272179
0.273745
0.275289
0.276806
0.278296
0.279756
0.281186
0.282588
0.28396
0.285303
0.28661
0.287881
0.289117
0.290322
0.291492
0.292616
0.293694
0.100996
0.102988
0.104982
0.106977
0.108973
0.110969
0.112967
0.114965
0.116964
0.118963
0.120963
0.122962
0.124962
0.126962
0.128961
0.130961
0.132961
0.134961
0.136961
0.138961
0.140961
0.142961
0.144961
0.146961
0.14896
0.15096
0.15296
0.15496
0.156959
0.158959
0.160958
0.162957
0.164956
0.166955
0.168954
0.170952
0.172951
0.174947
0.176929
0.178996
0.181504
0.184333
0.187153
0.189892
0.192525
0.195092
0.197603
0.200071
0.202499
0.204892
0.207255
0.209589
0.2119
0.214183
0.216439
0.218673
0.220885
0.223073
0.225237
0.227382
0.229501
0.231603
0.233681
0.235737
0.237769
0.239782
0.241773
0.243741
0.245692
0.247619
0.249521
0.251404
0.253263
0.255098
0.256912
0.258702
0.260469
0.262213
0.263933
0.265631
0.267302
0.268947
0.270567
0.272161
0.273729
0.275272
0.276789
0.27828
0.279741
0.281171
0.282571
0.283942
0.285286
0.286594
0.287869
0.289105
0.290311
0.291484
0.292612
0.293691
0.100987
0.102964
0.104944
0.106929
0.108917
0.110908
0.112901
0.114896
0.116892
0.11889
0.120888
0.122886
0.124885
0.126884
0.128884
0.130883
0.132883
0.134883
0.136883
0.138882
0.140882
0.142882
0.144882
0.146881
0.148881
0.150881
0.15288
0.154879
0.156878
0.158876
0.160874
0.16287
0.164866
0.166861
0.168854
0.170847
0.172839
0.174835
0.176844
0.178943
0.181516
0.184411
0.187258
0.189976
0.192586
0.195141
0.197638
0.200095
0.202512
0.204898
0.207252
0.209582
0.211889
0.214172
0.216426
0.21866
0.22087
0.223058
0.225222
0.227365
0.229484
0.231584
0.233663
0.235719
0.23775
0.239762
0.241753
0.243724
0.245674
0.247601
0.249506
0.251385
0.253245
0.255083
0.256897
0.258686
0.260452
0.262198
0.263917
0.265612
0.267284
0.26893
0.270552
0.272146
0.273716
0.275259
0.276774
0.278261
0.279722
0.281153
0.282556
0.283927
0.285269
0.28658
0.287853
0.289094
0.290305
0.291473
0.292602
0.293678
0.100977
0.102936
0.104903
0.106877
0.108858
0.110844
0.112833
0.114825
0.116819
0.118815
0.120812
0.12281
0.124808
0.126807
0.128806
0.130805
0.132805
0.134805
0.136804
0.138804
0.140804
0.142803
0.144803
0.146802
0.148802
0.150801
0.1528
0.154798
0.156796
0.158794
0.16079
0.162785
0.164778
0.166768
0.168756
0.170741
0.172724
0.174712
0.176728
0.178925
0.181621
0.184528
0.187345
0.190024
0.192631
0.195174
0.197663
0.200108
0.202522
0.204899
0.207252
0.209579
0.211883
0.214161
0.216414
0.218647
0.220857
0.223041
0.225205
0.22735
0.229469
0.231567
0.233647
0.2357
0.237735
0.239745
0.241735
0.243708
0.245658
0.247584
0.249489
0.25137
0.25323
0.255067
0.256879
0.258671
0.260436
0.262179
0.263898
0.265596
0.267269
0.268914
0.270537
0.272132
0.2737
0.275245
0.276759
0.278244
0.279703
0.281134
0.28254
0.283914
0.285256
0.286565
0.287841
0.289083
0.290294
0.291463
0.292589
0.293671
0.100962
0.1029
0.104854
0.106819
0.108794
0.110776
0.112762
0.114752
0.116745
0.11874
0.120736
0.122733
0.124731
0.126729
0.128728
0.130727
0.132727
0.134726
0.136726
0.138725
0.140725
0.142725
0.144724
0.146724
0.148723
0.150722
0.15272
0.154718
0.156716
0.158712
0.160707
0.162701
0.164692
0.166679
0.168661
0.170637
0.172604
0.174561
0.176563
0.179008
0.181858
0.184678
0.187416
0.190059
0.192645
0.195185
0.19767
0.200119
0.202524
0.204902
0.207247
0.209573
0.211874
0.214151
0.216401
0.218633
0.220843
0.223026
0.225193
0.227337
0.229455
0.231552
0.23363
0.235685
0.237718
0.239728
0.241719
0.243692
0.245641
0.247569
0.249473
0.251355
0.253214
0.25505
0.256863
0.258655
0.260423
0.262165
0.263885
0.265582
0.267255
0.2689
0.270521
0.272115
0.273685
0.275229
0.276744
0.278231
0.279688
0.28112
0.282525
0.283899
0.285241
0.286553
0.287834
0.289077
0.290281
0.291449
0.292578
0.293659
0.100933
0.102849
0.104792
0.106752
0.108723
0.110703
0.112688
0.114677
0.116669
0.118663
0.120659
0.122655
0.124653
0.126651
0.12865
0.130649
0.132648
0.134648
0.136647
0.138647
0.140647
0.142646
0.144646
0.146645
0.148644
0.150643
0.152641
0.154639
0.156636
0.158632
0.160627
0.162619
0.164609
0.166594
0.168573
0.170542
0.172494
0.174419
0.176465
0.179095
0.181963
0.184765
0.187468
0.190079
0.192655
0.195199
0.197679
0.200127
0.202532
0.204904
0.207245
0.209567
0.211867
0.214139
0.216392
0.218623
0.22083
0.223016
0.225183
0.227325
0.22944
0.231539
0.23362
0.235675
0.237705
0.239716
0.241708
0.24368
0.245627
0.247556
0.249461
0.251343
0.253201
0.255035
0.256848
0.258644
0.260413
0.262155
0.263875
0.265572
0.26724
0.268888
0.27051
0.272103
0.273672
0.275217
0.276729
0.278218
0.279679
0.281111
0.282515
0.283886
0.28523
0.286545
0.287822
0.289069
0.290275
0.291442
0.292569
0.293645
0.101067
0.103151
0.105208
0.107248
0.109277
0.111297
0.113312
0.115323
0.117331
0.119337
0.121342
0.123345
0.125347
0.127349
0.12935
0.131351
0.133352
0.135352
0.137353
0.139353
0.141354
0.143354
0.145355
0.147355
0.149356
0.151357
0.153359
0.155361
0.157364
0.159368
0.161373
0.16338
0.165389
0.167402
0.16942
0.171443
0.173476
0.175519
0.177581
0.179669
0.181806
0.184042
0.186436
0.189159
0.192055
0.194819
0.197455
0.199994
0.202473
0.204905
0.207291
0.209639
0.21196
0.21425
0.216511
0.218749
0.220963
0.223157
0.225327
0.227472
0.229592
0.231691
0.233769
0.235823
0.237855
0.239869
0.241858
0.243825
0.245769
0.247694
0.249598
0.251478
0.253339
0.255179
0.256994
0.258787
0.260554
0.262297
0.264014
0.265707
0.267376
0.269019
0.270637
0.272234
0.273803
0.275346
0.276863
0.278352
0.279811
0.281242
0.282643
0.284013
0.285349
0.286653
0.287926
0.289162
0.290365
0.291526
0.292649
0.29372
0.101038
0.1031
0.105147
0.107181
0.109206
0.111224
0.113238
0.115248
0.117255
0.11926
0.121264
0.123267
0.125269
0.127271
0.129272
0.131273
0.133273
0.135274
0.137274
0.139275
0.141275
0.143275
0.145276
0.147277
0.149277
0.151278
0.15328
0.155282
0.157284
0.159288
0.161292
0.163299
0.165308
0.167319
0.169335
0.171356
0.173385
0.175424
0.177475
0.179542
0.181628
0.183889
0.186575
0.189413
0.192197
0.194878
0.19748
0.2
0.20247
0.204893
0.207275
0.209623
0.211942
0.214234
0.216496
0.218732
0.220945
0.223138
0.225308
0.227453
0.229572
0.231673
0.233751
0.235806
0.237837
0.239852
0.24184
0.243809
0.245753
0.247679
0.249581
0.251463
0.253323
0.255161
0.256976
0.25877
0.260538
0.26228
0.263999
0.265692
0.267361
0.269004
0.270626
0.272219
0.273788
0.275332
0.276851
0.27834
0.279798
0.281229
0.282629
0.283998
0.285338
0.286646
0.287917
0.289151
0.290353
0.291514
0.292642
0.293711
0.101023
0.103064
0.105097
0.107123
0.109142
0.111157
0.113167
0.115175
0.117181
0.119185
0.121188
0.12319
0.125192
0.127193
0.129194
0.131195
0.133195
0.135196
0.137196
0.139196
0.141197
0.143197
0.145197
0.147198
0.149198
0.151199
0.1532
0.155202
0.157204
0.159207
0.16121
0.163216
0.165223
0.167232
0.169245
0.171262
0.173285
0.175315
0.177354
0.179402
0.181481
0.183881
0.186736
0.189562
0.192303
0.194946
0.197519
0.200022
0.202476
0.204893
0.207267
0.209613
0.211932
0.214221
0.216482
0.218719
0.220932
0.223122
0.22529
0.227435
0.229555
0.231656
0.233733
0.235788
0.237821
0.239835
0.241825
0.243792
0.245738
0.247664
0.249569
0.251451
0.25331
0.255148
0.256961
0.258751
0.260519
0.262262
0.263982
0.265675
0.267346
0.26899
0.270613
0.272207
0.273773
0.275318
0.276834
0.278325
0.279785
0.281215
0.282615
0.283988
0.285328
0.286636
0.287909
0.289144
0.290341
0.291505
0.292633
0.293704
0.101013
0.103036
0.105056
0.107071
0.109083
0.111092
0.113099
0.115104
0.117108
0.11911
0.121112
0.123114
0.125115
0.127116
0.129116
0.131117
0.133117
0.135117
0.137118
0.139118
0.141118
0.143118
0.145118
0.147119
0.149119
0.15112
0.15312
0.155121
0.157123
0.159125
0.161127
0.16313
0.165135
0.167142
0.16915
0.171162
0.173178
0.175198
0.177225
0.179263
0.181385
0.183989
0.18689
0.189689
0.192388
0.194996
0.197552
0.200042
0.202485
0.204891
0.207263
0.209606
0.21192
0.214207
0.216467
0.218706
0.220919
0.223106
0.225272
0.227416
0.229539
0.23164
0.233718
0.235773
0.237804
0.239816
0.241807
0.243775
0.245725
0.247651
0.249554
0.251437
0.253294
0.255132
0.256945
0.258734
0.260502
0.262246
0.263967
0.265662
0.267333
0.268979
0.2706
0.272195
0.27376
0.275304
0.276819
0.278309
0.27977
0.281199
0.282601
0.283973
0.285315
0.286625
0.287896
0.289131
0.290331
0.291498
0.292621
0.293698
0.101004
0.103012
0.105018
0.107023
0.109027
0.111031
0.113033
0.115035
0.117036
0.119037
0.121037
0.123038
0.125038
0.127039
0.129039
0.131039
0.133039
0.135039
0.137039
0.139039
0.141039
0.143039
0.14504
0.14704
0.14904
0.15104
0.15304
0.155041
0.157041
0.159042
0.161043
0.163044
0.165046
0.167049
0.169053
0.171058
0.173065
0.175075
0.177088
0.179126
0.181383
0.184122
0.187017
0.189795
0.192462
0.195045
0.197578
0.200061
0.202496
0.204894
0.20726
0.209597
0.211911
0.214193
0.216452
0.21869
0.220902
0.22309
0.225254
0.227399
0.22952
0.231621
0.2337
0.235754
0.237788
0.2398
0.24179
0.243758
0.245709
0.247636
0.249539
0.251421
0.253277
0.255114
0.256928
0.258716
0.260484
0.26223
0.263949
0.265648
0.267319
0.268963
0.270583
0.272179
0.273745
0.275289
0.276806
0.278296
0.279756
0.281186
0.282588
0.28396
0.285303
0.28661
0.287881
0.289117
0.290322
0.291492
0.292616
0.293694
0.100996
0.102988
0.104982
0.106977
0.108973
0.110969
0.112967
0.114965
0.116964
0.118963
0.120963
0.122962
0.124962
0.126962
0.128961
0.130961
0.132961
0.134961
0.136961
0.138961
0.140961
0.142961
0.144961
0.146961
0.14896
0.15096
0.15296
0.15496
0.156959
0.158959
0.160958
0.162957
0.164956
0.166955
0.168954
0.170952
0.172951
0.174947
0.176929
0.178996
0.181504
0.184333
0.187153
0.189892
0.192525
0.195092
0.197603
0.200071
0.202499
0.204892
0.207255
0.209589
0.2119
0.214183
0.216439
0.218673
0.220885
0.223073
0.225237
0.227382
0.229501
0.231603
0.233681
0.235737
0.237769
0.239782
0.241773
0.243741
0.245692
0.247619
0.249521
0.251404
0.253263
0.255098
0.256912
0.258702
0.260469
0.262213
0.263933
0.265631
0.267302
0.268947
0.270567
0.272161
0.273729
0.275272
0.276789
0.27828
0.279741
0.281171
0.282571
0.283942
0.285286
0.286594
0.287869
0.289105
0.290311
0.291484
0.292612
0.293691
0.100987
0.102964
0.104944
0.106929
0.108917
0.110908
0.112901
0.114896
0.116892
0.11889
0.120888
0.122886
0.124885
0.126884
0.128884
0.130883
0.132883
0.134883
0.136883
0.138882
0.140882
0.142882
0.144882
0.146881
0.148881
0.150881
0.15288
0.154879
0.156878
0.158876
0.160874
0.16287
0.164866
0.166861
0.168854
0.170847
0.172839
0.174835
0.176844
0.178943
0.181516
0.184411
0.187258
0.189976
0.192586
0.195141
0.197638
0.200095
0.202512
0.204898
0.207252
0.209582
0.211889
0.214172
0.216426
0.21866
0.22087
0.223058
0.225222
0.227365
0.229484
0.231584
0.233663
0.235719
0.23775
0.239762
0.241753
0.243724
0.245674
0.247601
0.249506
0.251385
0.253245
0.255083
0.256897
0.258686
0.260452
0.262198
0.263917
0.265612
0.267284
0.26893
0.270552
0.272146
0.273716
0.275259
0.276774
0.278261
0.279722
0.281153
0.282556
0.283927
0.285269
0.28658
0.287853
0.289094
0.290305
0.291473
0.292602
0.293678
0.100977
0.102936
0.104903
0.106877
0.108858
0.110844
0.112833
0.114825
0.116819
0.118815
0.120812
0.12281
0.124808
0.126807
0.128806
0.130805
0.132805
0.134805
0.136804
0.138804
0.140804
0.142803
0.144803
0.146802
0.148802
0.150801
0.1528
0.154798
0.156796
0.158794
0.16079
0.162785
0.164778
0.166768
0.168756
0.170741
0.172724
0.174712
0.176728
0.178925
0.181621
0.184528
0.187345
0.190024
0.192631
0.195174
0.197663
0.200108
0.202522
0.204899
0.207252
0.209579
0.211883
0.214161
0.216414
0.218647
0.220857
0.223041
0.225205
0.22735
0.229469
0.231567
0.233647
0.2357
0.237735
0.239745
0.241735
0.243708
0.245658
0.247584
0.249489
0.25137
0.25323
0.255067
0.256879
0.258671
0.260436
0.262179
0.263898
0.265596
0.267269
0.268914
0.270537
0.272132
0.2737
0.275245
0.276759
0.278244
0.279703
0.281134
0.28254
0.283914
0.285256
0.286565
0.287841
0.289083
0.290294
0.291463
0.292589
0.293671
0.100962
0.1029
0.104854
0.106819
0.108794
0.110776
0.112762
0.114752
0.116745
0.11874
0.120736
0.122733
0.124731
0.126729
0.128728
0.130727
0.132727
0.134726
0.136726
0.138725
0.140725
0.142725
0.144724
0.146724
0.148723
0.150722
0.15272
0.154718
0.156716
0.158712
0.160707
0.162701
0.164692
0.166679
0.168661
0.170637
0.172604
0.174561
0.176563
0.179008
0.181858
0.184678
0.187416
0.190059
0.192645
0.195185
0.19767
0.200119
0.202524
0.204902
0.207247
0.209573
0.211874
0.214151
0.216401
0.218633
0.220843
0.223026
0.225193
0.227337
0.229455
0.231552
0.23363
0.235685
0.237718
0.239728
0.241719
0.243692
0.245641
0.247569
0.249473
0.251355
0.253214
0.25505
0.256863
0.258655
0.260423
0.262165
0.263885
0.265582
0.267255
0.2689
0.270521
0.272115
0.273685
0.275229
0.276744
0.278231
0.279688
0.28112
0.282525
0.283899
0.285241
0.286553
0.287834
0.289077
0.290281
0.291449
0.292578
0.293659
0.100933
0.102849
0.104792
0.106752
0.108723
0.110703
0.112688
0.114677
0.116669
0.118663
0.120659
0.122655
0.124653
0.126651
0.12865
0.130649
0.132648
0.134648
0.136647
0.138647
0.140647
0.142646
0.144646
0.146645
0.148644
0.150643
0.152641
0.154639
0.156636
0.158632
0.160627
0.162619
0.164609
0.166594
0.168573
0.170542
0.172494
0.174419
0.176465
0.179095
0.181963
0.184765
0.187468
0.190079
0.192655
0.195199
0.197679
0.200127
0.202532
0.204904
0.207245
0.209567
0.211867
0.214139
0.216392
0.218623
0.22083
0.223016
0.225183
0.227325
0.22944
0.231539
0.23362
0.235675
0.237705
0.239716
0.241708
0.24368
0.245627
0.247556
0.249461
0.251343
0.253201
0.255035
0.256848
0.258644
0.260413
0.262155
0.263875
0.265572
0.26724
0.268888
0.27051
0.272103
0.273672
0.275217
0.276729
0.278218
0.279679
0.281111
0.282515
0.283886
0.28523
0.286545
0.287822
0.289069
0.290275
0.291442
0.292569
0.293645
0.101067
0.103151
0.105208
0.107248
0.109277
0.111297
0.113312
0.115323
0.117331
0.119337
0.121342
0.123345
0.125347
0.127349
0.12935
0.131351
0.133352
0.135352
0.137353
0.139353
0.141354
0.143354
0.145355
0.147355
0.149356
0.151357
0.153359
0.155361
0.157364
0.159368
0.161373
0.16338
0.165389
0.167402
0.16942
0.171443
0.173476
0.175519
0.177581
0.179669
0.181806
0.184042
0.186436
0.189159
0.192055
0.194819
0.197455
0.199994
0.202473
0.204905
0.207291
0.209639
0.21196
0.21425
0.216511
0.218749
0.220963
0.223157
0.225327
0.227472
0.229592
0.231691
0.233769
0.235823
0.237855
0.239869
0.241858
0.243825
0.245769
0.247694
0.249598
0.251478
0.253339
0.255179
0.256994
0.258787
0.260554
0.262297
0.264014
0.265707
0.267376
0.269019
0.270637
0.272234
0.273803
0.275346
0.276863
0.278352
0.279811
0.281242
0.282643
0.284013
0.285349
0.286653
0.287926
0.289162
0.290365
0.291526
0.292649
0.29372
0.100933
0.102849
0.104792
0.106752
0.108723
0.110703
0.112688
0.114677
0.116669
0.118663
0.120659
0.122655
0.124653
0.126651
0.12865
0.130649
0.132648
0.134648
0.136647
0.138647
0.140647
0.142646
0.144646
0.146645
0.148644
0.150643
0.152641
0.154639
0.156636
0.158632
0.160627
0.162619
0.164609
0.166594
0.168573
0.170542
0.172494
0.174419
0.176465
0.179095
0.181963
0.184765
0.187468
0.190079
0.192655
0.195199
0.197679
0.200127
0.202532
0.204904
0.207245
0.209567
0.211867
0.214139
0.216392
0.218623
0.22083
0.223016
0.225183
0.227325
0.22944
0.231539
0.23362
0.235675
0.237705
0.239716
0.241708
0.24368
0.245627
0.247556
0.249461
0.251343
0.253201
0.255035
0.256848
0.258644
0.260413
0.262155
0.263875
0.265572
0.26724
0.268888
0.27051
0.272103
0.273672
0.275217
0.276729
0.278218
0.279679
0.281111
0.282515
0.283886
0.28523
0.286545
0.287822
0.289069
0.290275
0.291442
0.292569
0.293645
)
;
    }
}


// ************************************************************************* //
