/*--------------------------------*- C++ -*----------------------------------*\
| =========                 |                                                 |
| \\      /  F ield         | foam-extend: Open Source CFD                    |
|  \\    /   O peration     | Version:     5.0                                |
|   \\  /    A nd           | Web:         http://www.foam-extend.org         |
|    \\/     M anipulation  |                                                 |
\*---------------------------------------------------------------------------*/
FoamFile
{
    version     2.0;
    format      ascii;
    class       surfaceScalarField;
    location    "8000";
    object      phi;
}
// * * * * * * * * * * * * * * * * * * * * * * * * * * * * * * * * * * * * * //

dimensions      [0 3 -1 0 0 0 0];

internalField   nonuniform List<scalar> 
1890
(
-1.04211e-05
-2.47692e-07
-1.02847e-05
-1.36397e-07
-1.01998e-05
-8.486e-08
-1.0143e-05
-5.67873e-08
-1.01034e-05
-3.95779e-08
-1.00752e-05
-2.82024e-08
-1.00549e-05
-2.03403e-08
-1.00401e-05
-1.47665e-08
-1.00294e-05
-1.07575e-08
-1.00215e-05
-7.8501e-09
-1.00158e-05
-5.73097e-09
-1.00116e-05
-4.18101e-09
-1.00086e-05
-3.04369e-09
-1.00064e-05
-2.20572e-09
-1.00048e-05
-1.58424e-09
-1.00037e-05
-1.11808e-09
-1.00029e-05
-7.61491e-10
-1.00024e-05
-4.79514e-10
-1.00022e-05
-2.44552e-10
-1.00021e-05
-3.3644e-11
-1.00023e-05
1.73772e-10
-1.00027e-05
3.97841e-10
-1.00034e-05
6.60213e-10
-1.00044e-05
9.86058e-10
-1.00058e-05
1.40636e-09
-1.00077e-05
1.96067e-09
-1.00104e-05
2.70049e-09
-1.00141e-05
3.69354e-09
-1.00191e-05
5.0293e-09
-1.0026e-05
6.82632e-09
-1.00352e-05
9.24237e-09
-1.00477e-05
1.24898e-08
-1.00646e-05
1.68617e-08
-1.00874e-05
2.27797e-08
-1.01182e-05
3.08927e-08
-1.01605e-05
4.22973e-08
-1.02196e-05
5.909e-08
-1.03056e-05
8.59429e-08
-1.04407e-05
1.35127e-07
-1.06842e-05
2.43455e-07
-1.11801e-05
4.95932e-07
-1.15946e-05
4.14506e-07
-1.08563e-05
-7.38269e-07
-9.84802e-06
-1.00831e-06
-9.22164e-06
-6.26378e-07
-8.898e-06
-3.23636e-07
-8.70818e-06
-1.89825e-07
-8.5933e-06
-1.14877e-07
-8.51873e-06
-7.45683e-08
-8.47527e-06
-4.34598e-08
-8.44856e-06
-2.67073e-08
-8.42869e-06
-1.98728e-08
-8.41435e-06
-1.43367e-08
-8.39525e-06
-1.91016e-08
-8.37824e-06
-1.70105e-08
-8.37126e-06
-6.98271e-09
-8.36945e-06
-1.80827e-09
-8.37337e-06
3.91492e-09
-8.37972e-06
6.35016e-09
-8.3883e-06
8.58684e-09
-8.40409e-06
1.57855e-08
-8.41807e-06
1.39874e-08
-8.42967e-06
1.15991e-08
-8.4447e-06
1.50219e-08
-8.46152e-06
1.68272e-08
-8.47855e-06
1.70234e-08
-8.50189e-06
2.33453e-08
-8.5197e-06
1.78101e-08
-8.53786e-06
1.8157e-08
-8.55183e-06
1.39753e-08
-8.57622e-06
2.43858e-08
-8.5982e-06
2.19847e-08
-8.62995e-06
3.17489e-08
-8.66742e-06
3.74709e-08
-8.71325e-06
4.58293e-08
-8.75453e-06
4.12757e-08
-8.79238e-06
3.78524e-08
-8.83547e-06
4.30885e-08
-8.87426e-06
3.8789e-08
-8.91796e-06
4.36998e-08
-8.96484e-06
4.68814e-08
-9.01106e-06
4.62201e-08
-9.04242e-06
3.13639e-08
-9.09334e-06
5.09177e-08
-9.14847e-06
5.51333e-08
-9.20053e-06
5.20614e-08
-9.24539e-06
4.48583e-08
-9.2878e-06
4.24074e-08
-9.3431e-06
5.52993e-08
-9.4057e-06
6.2606e-08
-9.47418e-06
6.84772e-08
-9.55123e-06
7.70517e-08
-9.60413e-06
5.28957e-08
-9.63033e-06
2.62023e-08
-9.67631e-06
4.59793e-08
-9.7388e-06
6.24965e-08
-9.81914e-06
8.03374e-08
-9.89852e-06
7.93823e-08
-9.93884e-06
4.0321e-08
6.11585e-08
-1.03098e-05
-3.17264e-07
-1.02331e-05
-2.13036e-07
-1.01717e-05
-1.46256e-07
-1.01258e-05
-1.02711e-07
-1.00921e-05
-7.3322e-08
-1.00674e-05
-5.28912e-08
-1.00493e-05
-3.83925e-08
-1.00361e-05
-2.79682e-08
-1.00265e-05
-2.04135e-08
-1.00194e-05
-1.49119e-08
-1.00142e-05
-1.08928e-08
-1.00105e-05
-7.94939e-09
-1.00077e-05
-5.78806e-09
-1.00057e-05
-4.19495e-09
-1.00043e-05
-3.01316e-09
-1.00033e-05
-2.12662e-09
-1.00026e-05
-1.44838e-09
-1.00022e-05
-9.12028e-10
-1.0002e-05
-4.65067e-10
-1.00019e-05
-6.38132e-11
-1.00021e-05
3.30871e-10
-1.00025e-05
7.5736e-10
-1.0003e-05
1.25693e-09
-1.00039e-05
1.87763e-09
-1.00052e-05
2.67869e-09
-1.0007e-05
3.73581e-09
-1.00094e-05
5.1477e-09
-1.00128e-05
7.04431e-09
-1.00174e-05
9.59731e-09
-1.00236e-05
1.30336e-08
-1.0032e-05
1.76532e-08
-1.00433e-05
2.38553e-08
-1.00587e-05
3.21773e-08
-1.00792e-05
4.33642e-08
-1.01068e-05
5.84936e-08
-1.01437e-05
7.92067e-08
-1.01928e-05
1.0812e-07
-1.02564e-05
1.49555e-07
-1.03323e-05
2.11083e-07
-1.0396e-05
3.07122e-07
-1.0248e-05
3.47886e-07
-9.54886e-06
-2.84599e-07
-9.5501e-06
-7.37025e-07
-9.90557e-06
-6.52847e-07
-1.00369e-05
-4.95018e-07
-1.00043e-05
-3.56247e-07
-9.946e-06
-2.48143e-07
-9.88587e-06
-1.74997e-07
-9.8509e-06
-1.09542e-07
-9.81176e-06
-8.25951e-08
-9.79302e-06
-4.54496e-08
-9.77707e-06
-3.5822e-08
-9.75952e-06
-3.18918e-08
-9.76062e-06
-1.79966e-08
-9.76522e-06
-1.24075e-08
-9.7569e-06
-1.53073e-08
-9.74888e-06
-9.83178e-09
-9.75247e-06
7.51282e-09
-9.76447e-06
1.8347e-08
-9.77627e-06
2.03853e-08
-9.77862e-06
1.81413e-08
-9.7798e-06
1.51673e-08
-9.79285e-06
2.46444e-08
-9.80369e-06
2.58628e-08
-9.80936e-06
2.25021e-08
-9.81905e-06
2.67149e-08
-9.81756e-06
2.18472e-08
-9.83291e-06
3.31677e-08
-9.84232e-06
2.75593e-08
-9.85666e-06
2.83202e-08
-9.84938e-06
1.71066e-08
-9.84514e-06
1.77486e-08
-9.83501e-06
2.16129e-08
-9.82282e-06
2.52812e-08
-9.81557e-06
3.85808e-08
-9.834e-06
5.97107e-08
-9.86004e-06
6.38896e-08
-9.88343e-06
6.64778e-08
-9.90331e-06
5.86662e-08
-9.92266e-06
6.30549e-08
-9.92686e-06
5.10777e-08
-9.92682e-06
4.61875e-08
-9.93738e-06
4.19257e-08
-9.92834e-06
4.18747e-08
-9.93203e-06
5.88247e-08
-9.94356e-06
6.35864e-08
-9.98253e-06
8.38292e-08
-1.00154e-05
7.52925e-08
-1.00195e-05
5.93924e-08
-1.00253e-05
6.8449e-08
-1.00304e-05
7.3565e-08
-1.00084e-05
5.50225e-08
-1.00103e-05
5.4784e-08
-1.00414e-05
5.72999e-08
-1.00376e-05
4.21878e-08
-1.00099e-05
3.48262e-08
-1.0008e-05
7.8455e-08
-9.99168e-06
6.30238e-08
-1.00149e-05
6.35403e-08
4.62572e-08
-1.02055e-05
-3.40791e-07
-1.01663e-05
-2.52229e-07
-1.01282e-05
-1.84415e-07
-1.00964e-05
-1.34479e-07
-1.00716e-05
-9.81079e-08
-1.00529e-05
-7.1648e-08
-1.00389e-05
-5.23702e-08
-1.00286e-05
-3.83002e-08
-1.0021e-05
-2.80164e-08
-1.00154e-05
-2.04912e-08
-1.00113e-05
-1.49789e-08
-1.00083e-05
-1.09357e-08
-1.00061e-05
-7.96422e-09
-1.00046e-05
-5.77287e-09
-1.00034e-05
-4.14684e-09
-1.00026e-05
-2.92683e-09
-1.00021e-05
-1.99339e-09
-1.00017e-05
-1.25515e-09
-1.00016e-05
-6.3987e-10
-1.00015e-05
-8.74097e-11
-1.00017e-05
4.56167e-10
-1.0002e-05
1.0438e-09
-1.00024e-05
1.73252e-09
-1.00031e-05
2.58884e-09
-1.00042e-05
3.69496e-09
-1.00056e-05
5.15618e-09
-1.00075e-05
7.11019e-09
-1.00102e-05
9.7387e-09
-1.00139e-05
1.3282e-08
-1.00189e-05
1.80574e-08
-1.00258e-05
2.44818e-08
-1.0035e-05
3.31007e-08
-1.00475e-05
4.46279e-08
-1.00641e-05
6.00063e-08
-1.00861e-05
8.0511e-08
-1.01148e-05
1.07916e-07
-1.01513e-05
1.44627e-07
-1.01949e-05
1.93073e-07
-1.02356e-05
2.51819e-07
-1.023e-05
3.01505e-07
-9.97613e-06
9.40352e-08
-9.58494e-06
-6.75785e-07
-9.6405e-06
-6.81469e-07
-9.72192e-06
-5.71427e-07
-9.79442e-06
-4.22519e-07
-9.85818e-06
-2.92483e-07
-9.88418e-06
-2.22147e-07
-9.89013e-06
-1.69042e-07
-9.87688e-06
-1.22791e-07
-9.88668e-06
-7.27905e-08
-9.87073e-06
-6.14072e-08
-9.86101e-06
-4.55406e-08
-9.86959e-06
-2.33078e-08
-9.87689e-06
-1.06988e-08
-9.88471e-06
-4.58766e-09
-9.88909e-06
-1.09215e-08
-9.89333e-06
-5.59035e-09
-9.8914e-06
5.57617e-09
-9.89026e-06
1.72112e-08
-9.89445e-06
2.45749e-08
-9.89054e-06
1.42335e-08
-9.89031e-06
1.49331e-08
-9.88141e-06
1.57412e-08
-9.87411e-06
1.8572e-08
-9.8787e-06
2.7084e-08
-9.89145e-06
3.94731e-08
-9.90351e-06
3.39052e-08
-9.90278e-06
3.2437e-08
-9.8927e-06
1.74839e-08
-9.88314e-06
1.87544e-08
-9.8944e-06
2.837e-08
-9.90311e-06
2.6453e-08
-9.9207e-06
3.92067e-08
-9.93638e-06
4.09656e-08
-9.94037e-06
4.25724e-08
-9.93368e-06
5.30166e-08
-9.92325e-06
5.34562e-08
-9.90693e-06
5.0165e-08
-9.89821e-06
4.99413e-08
-9.87688e-06
4.17253e-08
-9.86555e-06
3.97459e-08
-9.85514e-06
3.57872e-08
-9.86213e-06
4.89137e-08
-9.867e-06
4.67435e-08
-9.8642e-06
5.60247e-08
-9.85999e-06
5.93775e-08
-9.8428e-06
6.66389e-08
-9.84535e-06
7.78452e-08
-9.86549e-06
7.95301e-08
-9.88054e-06
8.34953e-08
-9.88256e-06
7.559e-08
-9.90902e-06
8.14824e-08
-9.92808e-06
7.38437e-08
-9.93299e-06
6.22167e-08
-9.96982e-06
7.90117e-08
-1.00205e-05
8.55085e-08
-1.00058e-05
6.37212e-08
-9.98262e-06
3.98793e-08
-1.00048e-05
8.57367e-08
4.14418e-08
-1.0117e-05
-3.49662e-07
-1.00985e-05
-2.70672e-07
-1.00783e-05
-2.04697e-07
-1.006e-05
-1.52683e-07
-1.00452e-05
-1.12982e-07
-1.00336e-05
-8.32227e-08
-1.00248e-05
-6.114e-08
-1.00183e-05
-4.48462e-08
-1.00134e-05
-3.28606e-08
-1.00099e-05
-2.40578e-08
-1.00073e-05
-1.75957e-08
-1.00053e-05
-1.28503e-08
-1.00039e-05
-9.36025e-09
-1.00029e-05
-6.78547e-09
-1.00022e-05
-4.87448e-09
-1.00017e-05
-3.44048e-09
-1.00013e-05
-2.3432e-09
-1.00011e-05
-1.4753e-09
-1.0001e-05
-7.5186e-10
-1.0001e-05
-1.02125e-10
-1.00011e-05
5.37404e-10
-1.00013e-05
1.22915e-09
-1.00016e-05
2.0405e-09
-1.0002e-05
3.05025e-09
-1.00027e-05
4.35611e-09
-1.00036e-05
6.08374e-09
-1.00049e-05
8.39818e-09
-1.00067e-05
1.15183e-08
-1.00091e-05
1.57347e-08
-1.00125e-05
2.14323e-08
-1.00172e-05
2.91157e-08
-1.00235e-05
3.94377e-08
-1.00321e-05
5.32275e-08
-1.00436e-05
7.15221e-08
-1.00587e-05
9.56279e-08
-1.00781e-05
1.27319e-07
-1.01029e-05
1.694e-07
-1.01361e-05
2.26291e-07
-1.01811e-05
2.96826e-07
-1.01699e-05
2.90248e-07
-9.73651e-06
-3.39322e-07
-9.68857e-06
-7.2372e-07
-9.77895e-06
-5.91093e-07
-9.85246e-06
-4.97915e-07
-9.89384e-06
-3.81139e-07
-9.90098e-06
-2.85342e-07
-9.92462e-06
-1.98511e-07
-9.92865e-06
-1.65012e-07
-9.92279e-06
-1.28651e-07
-9.90059e-06
-9.49834e-08
-9.89342e-06
-6.85848e-08
-9.89618e-06
-4.27749e-08
-9.88261e-06
-3.68796e-08
-9.87901e-06
-1.4297e-08
-9.87697e-06
-6.62478e-09
-9.88851e-06
6.16446e-10
-9.89871e-06
4.60326e-09
-9.90176e-06
8.63344e-09
-9.89966e-06
1.51139e-08
-9.88932e-06
1.42348e-08
-9.89991e-06
2.48246e-08
-9.9155e-06
3.05235e-08
-9.92624e-06
2.64803e-08
-9.94163e-06
3.39572e-08
-9.93998e-06
2.54347e-08
-9.92346e-06
2.2953e-08
-9.92014e-06
3.05829e-08
-9.92025e-06
3.25485e-08
-9.93392e-06
3.11598e-08
-9.94076e-06
2.55912e-08
-9.94138e-06
2.89908e-08
-9.95401e-06
3.90787e-08
-9.95852e-06
4.37238e-08
-9.9744e-06
5.68429e-08
-9.98354e-06
5.17094e-08
-9.98852e-06
5.79986e-08
-9.9987e-06
6.36369e-08
-9.99929e-06
5.07562e-08
-1.00126e-05
6.3289e-08
-1.00166e-05
4.56613e-08
-1.00261e-05
4.9275e-08
-1.00501e-05
5.9777e-08
-1.00733e-05
7.21419e-08
-1.00945e-05
6.79621e-08
-1.01016e-05
6.31272e-08
-1.01085e-05
6.62493e-08
-1.01028e-05
6.09405e-08
-1.00842e-05
5.91999e-08
-1.00751e-05
7.04234e-08
-1.00595e-05
6.79689e-08
-1.0055e-05
7.11007e-08
-1.0043e-05
6.94175e-08
-1.00396e-05
7.04585e-08
-1.00662e-05
8.88104e-08
-1.00854e-05
9.82601e-08
-1.00974e-05
9.7528e-08
-1.00954e-05
6.16352e-08
-1.00848e-05
2.93592e-08
-1.00229e-05
2.37914e-08
1.85463e-08
-1.0038e-05
-3.52045e-07
-1.00326e-05
-2.76102e-07
-1.00262e-05
-2.11018e-07
-1.00203e-05
-1.58575e-07
-1.00154e-05
-1.17915e-07
-1.00115e-05
-8.71203e-08
-1.00085e-05
-6.41211e-08
-1.00063e-05
-4.70839e-08
-1.00046e-05
-3.45222e-08
-1.00034e-05
-2.52834e-08
-1.00025e-05
-1.84961e-08
-1.00019e-05
-1.35094e-08
-1.00014e-05
-9.84105e-09
-1.0001e-05
-7.13427e-09
-1.00008e-05
-5.12515e-09
-1.00006e-05
-3.61741e-09
-1.00005e-05
-2.46365e-09
-1.00004e-05
-1.55099e-09
-1.00004e-05
-7.90146e-10
-1.00004e-05
-1.0664e-10
-1.00004e-05
5.66417e-10
-1.00005e-05
1.29489e-09
-1.00006e-05
2.15006e-09
-1.00007e-05
3.21555e-09
-1.0001e-05
4.59548e-09
-1.00013e-05
6.42448e-09
-1.00018e-05
8.88051e-09
-1.00025e-05
1.22014e-08
-1.00034e-05
1.67062e-08
-1.00048e-05
2.28213e-08
-1.00068e-05
3.1111e-08
-1.00097e-05
4.23068e-08
-1.00138e-05
5.73222e-08
-1.00195e-05
7.72267e-08
-1.0027e-05
1.03159e-07
-1.0036e-05
1.36333e-07
-1.0046e-05
1.79364e-07
-1.00656e-05
2.45854e-07
-1.01683e-05
3.99515e-07
-1.01679e-05
2.89937e-07
-9.81153e-06
-6.95739e-07
-9.66507e-06
-8.70183e-07
-9.65112e-06
-6.05042e-07
-9.68391e-06
-4.65121e-07
-9.72647e-06
-3.38581e-07
-9.73627e-06
-2.75544e-07
-9.74942e-06
-1.85355e-07
-9.78632e-06
-1.28114e-07
-9.81865e-06
-9.63187e-08
-9.84035e-06
-7.32826e-08
-9.85235e-06
-5.65912e-08
-9.85329e-06
-4.1826e-08
-9.86026e-06
-2.99159e-08
-9.84658e-06
-2.79723e-08
-9.83865e-06
-1.45593e-08
-9.84274e-06
4.71286e-09
-9.84804e-06
9.90493e-09
-9.84936e-06
9.94532e-09
-9.84981e-06
1.55718e-08
-9.85105e-06
1.54701e-08
-9.85229e-06
2.60629e-08
-9.84702e-06
2.52589e-08
-9.85262e-06
3.20825e-08
-9.84027e-06
2.16028e-08
-9.84688e-06
3.20428e-08
-9.85778e-06
3.38582e-08
-9.86046e-06
3.32619e-08
-9.86291e-06
3.4995e-08
-9.86404e-06
3.22957e-08
-9.87853e-06
4.00829e-08
-9.89567e-06
4.6127e-08
-9.89745e-06
4.08642e-08
-9.88689e-06
3.31566e-08
-9.86933e-06
3.92897e-08
-9.86309e-06
4.54702e-08
-9.84383e-06
3.87396e-08
-9.82439e-06
4.4193e-08
-9.83091e-06
5.72756e-08
-9.82153e-06
5.39074e-08
-9.83561e-06
5.97428e-08
-9.84963e-06
6.32933e-08
-9.85218e-06
6.23298e-08
-9.84445e-06
6.44135e-08
-9.85532e-06
7.88368e-08
-9.86152e-06
6.93258e-08
-9.8759e-06
8.06299e-08
-9.89561e-06
8.06525e-08
-9.91829e-06
8.18798e-08
-9.92233e-06
7.44613e-08
-9.93194e-06
7.75761e-08
-9.95513e-06
9.42924e-08
-9.9922e-06
1.06488e-07
-1.00246e-05
1.02865e-07
-1.00417e-05
1.05899e-07
-1.00209e-05
7.75144e-08
-1.00018e-05
7.8395e-08
-1.00049e-05
6.47336e-08
-1.00242e-05
4.86055e-08
-1.00159e-05
1.54993e-08
2.68335e-09
-9.96205e-06
-3.49662e-07
-9.96748e-06
-2.70672e-07
-9.9738e-06
-2.04697e-07
-9.97969e-06
-1.52683e-07
-9.98462e-06
-1.12982e-07
-9.98852e-06
-8.32227e-08
-9.9915e-06
-6.114e-08
-9.99374e-06
-4.48462e-08
-9.9954e-06
-3.28606e-08
-9.99662e-06
-2.40578e-08
-9.99752e-06
-1.75957e-08
-9.99818e-06
-1.28503e-08
-9.99866e-06
-9.36024e-09
-9.99901e-06
-6.78544e-09
-9.99926e-06
-4.87442e-09
-9.99944e-06
-3.44036e-09
-9.99956e-06
-2.34298e-09
-9.99964e-06
-1.47488e-09
-9.99968e-06
-7.51092e-10
-9.99968e-06
-1.00712e-10
-9.99966e-06
5.40004e-10
-9.9996e-06
1.23393e-09
-9.9995e-06
2.04929e-09
-9.99935e-06
3.0664e-09
-9.99914e-06
4.38577e-09
-9.99885e-06
6.13816e-09
-9.99847e-06
8.49792e-09
-9.99797e-06
1.17007e-08
-9.99733e-06
1.60674e-08
-9.99654e-06
2.20357e-08
-9.99563e-06
3.02002e-08
-9.99468e-06
4.13565e-08
-9.99389e-06
5.65278e-08
-9.99356e-06
7.69029e-08
-9.99386e-06
1.03451e-07
-9.99301e-06
1.35487e-07
-9.97951e-06
1.65866e-07
-9.89845e-06
1.64787e-07
-9.53183e-06
3.28999e-08
-9.10325e-06
-1.38644e-07
-9.45906e-06
-3.39927e-07
-9.86669e-06
-4.62554e-07
-9.97025e-06
-5.01479e-07
-1.00159e-05
-4.19426e-07
-1.00221e-05
-3.32419e-07
-1.00126e-05
-2.85019e-07
-9.9686e-06
-2.29385e-07
-9.91543e-06
-1.81285e-07
-9.87629e-06
-1.35462e-07
-9.84739e-06
-1.02183e-07
-9.83953e-06
-6.44515e-08
-9.83715e-06
-4.42052e-08
-9.84334e-06
-2.37272e-08
-9.84945e-06
-2.1858e-08
-9.8548e-06
-9.21481e-09
-9.84163e-06
-8.45677e-09
-9.83207e-06
3.53487e-10
-9.82431e-06
2.17998e-09
-9.81471e-06
5.97814e-09
-9.81748e-06
1.82397e-08
-9.8134e-06
2.19788e-08
-9.81747e-06
2.93341e-08
-9.81367e-06
2.82734e-08
-9.82451e-06
3.24453e-08
-9.83005e-06
3.75884e-08
-9.83955e-06
4.33537e-08
-9.85285e-06
4.6567e-08
-9.85021e-06
3.23506e-08
-9.86125e-06
4.33343e-08
-9.86359e-06
4.24232e-08
-9.85231e-06
3.4854e-08
-9.86322e-06
5.17737e-08
-9.8784e-06
4.83334e-08
-9.87831e-06
3.91964e-08
-9.87158e-06
3.87415e-08
-9.87788e-06
4.50464e-08
-9.88518e-06
5.14905e-08
-9.87681e-06
4.89026e-08
-9.87892e-06
5.6025e-08
-9.89012e-06
7.09438e-08
-9.90294e-06
7.61113e-08
-9.91291e-06
7.2295e-08
-9.90584e-06
5.73502e-08
-9.88811e-06
6.11028e-08
-9.87497e-06
5.61863e-08
-9.84838e-06
5.4038e-08
-9.83426e-06
6.65398e-08
-9.84724e-06
9.48532e-08
-9.87215e-06
9.93789e-08
-9.89488e-06
1.00304e-07
-9.88594e-06
8.53571e-08
-9.87052e-06
9.10648e-08
-9.86747e-06
9.98172e-08
-9.84107e-06
7.94924e-08
-9.86145e-06
9.79039e-08
-9.85238e-06
6.93213e-08
-9.8191e-06
3.14527e-08
-9.84403e-06
7.35401e-08
-9.89951e-06
7.09808e-08
1.03171e-07
-9.88306e-06
-3.40791e-07
-9.9015e-06
-2.52229e-07
-9.92178e-06
-1.84415e-07
-9.93999e-06
-1.34479e-07
-9.95486e-06
-9.81079e-08
-9.96644e-06
-7.1648e-08
-9.97521e-06
-5.23702e-08
-9.98175e-06
-3.83003e-08
-9.9866e-06
-2.80164e-08
-9.99016e-06
-2.04912e-08
-9.99278e-06
-1.49789e-08
-9.99469e-06
-1.09357e-08
-9.99609e-06
-7.96419e-09
-9.9971e-06
-5.77282e-09
-9.99783e-06
-4.14673e-09
-9.99834e-06
-2.92664e-09
-9.99869e-06
-1.99303e-09
-9.99891e-06
-1.25448e-09
-9.99903e-06
-6.38631e-10
-9.99904e-06
-8.51248e-11
-9.99896e-06
4.60374e-10
-9.99878e-06
1.05154e-09
-9.99848e-06
1.74675e-09
-9.99803e-06
2.615e-09
-9.99738e-06
3.74302e-09
-9.99649e-06
5.24446e-09
-9.99526e-06
7.27229e-09
-9.9936e-06
1.00361e-08
-9.99136e-06
1.3827e-08
-9.98838e-06
1.90539e-08
-9.98448e-06
2.62978e-08
-9.97951e-06
3.63909e-08
-9.97351e-06
5.05297e-08
-9.96702e-06
7.04065e-08
-9.96182e-06
9.82524e-08
-9.96263e-06
1.363e-07
-9.9806e-06
1.83829e-07
-1.00413e-05
2.25537e-07
-1.01967e-05
1.88284e-07
-1.00568e-05
-2.78589e-07
-9.73827e-06
-6.58442e-07
-9.63562e-06
-5.65207e-07
-9.69852e-06
-4.38575e-07
-9.82823e-06
-2.89716e-07
-9.88815e-06
-2.72499e-07
-9.95032e-06
-2.22851e-07
-9.9952e-06
-1.84499e-07
-1.00423e-05
-1.34152e-07
-1.00594e-05
-1.18356e-07
-1.00808e-05
-8.08145e-08
-1.00728e-05
-7.24347e-08
-1.00611e-05
-5.59586e-08
-1.00406e-05
-4.42501e-08
-1.00432e-05
-1.9248e-08
-1.00404e-05
-1.20104e-08
-1.00443e-05
-4.54162e-09
-1.004e-05
-3.88111e-09
-1.00561e-05
1.82531e-08
-1.0066e-05
1.591e-08
-1.00587e-05
1.08503e-08
-1.00488e-05
1.21164e-08
-1.00435e-05
2.40351e-08
-1.00381e-05
2.28447e-08
-1.00412e-05
3.55747e-08
-1.00281e-05
2.44593e-08
-1.00215e-05
3.68007e-08
-1.00153e-05
4.03762e-08
-1.00182e-05
3.52308e-08
-1.00098e-05
3.49133e-08
-1.00084e-05
4.09943e-08
-1.00168e-05
4.33174e-08
-1.00032e-05
3.81353e-08
-9.99431e-06
3.94679e-08
-9.99797e-06
4.28536e-08
-1.00174e-05
5.8198e-08
-1.00197e-05
4.73131e-08
-1.00238e-05
5.56147e-08
-1.00433e-05
6.84187e-08
-1.00583e-05
7.09531e-08
-1.00507e-05
6.33804e-08
-1.00257e-05
5.11594e-08
-1.00176e-05
6.41369e-08
-1.00186e-05
5.84067e-08
-1.00121e-05
5.46137e-08
-1.00251e-05
6.91393e-08
-1.00349e-05
6.38827e-08
-1.00437e-05
7.52567e-08
-1.00362e-05
8.73544e-08
-1.00458e-05
1.08983e-07
-1.00532e-05
1.07783e-07
-1.00587e-05
9.08289e-08
-1.0034e-05
6.63165e-08
-1.00121e-05
7.79959e-08
-1.00251e-05
9.24234e-08
-9.99874e-06
7.15688e-08
-9.99263e-06
6.32111e-08
-1.00342e-05
7.30539e-08
-1.00331e-05
7.24071e-08
-1.00594e-05
9.7326e-08
4.3728e-08
-9.79449e-06
-3.17264e-07
-9.83369e-06
-2.13036e-07
-9.87185e-06
-1.46256e-07
-9.90361e-06
-1.02711e-07
-9.9284e-06
-7.33221e-08
-9.94716e-06
-5.28912e-08
-9.96114e-06
-3.83925e-08
-9.97147e-06
-2.79682e-08
-9.97907e-06
-2.04135e-08
-9.98465e-06
-1.49119e-08
-9.98874e-06
-1.08928e-08
-9.99172e-06
-7.94938e-09
-9.9939e-06
-5.78804e-09
-9.99548e-06
-4.19491e-09
-9.99661e-06
-3.01306e-09
-9.99741e-06
-2.12643e-09
-9.99796e-06
-1.44803e-09
-9.9983e-06
-9.11363e-10
-9.99847e-06
-4.63833e-10
-9.9985e-06
-6.15346e-11
-9.99837e-06
3.35071e-10
-9.99809e-06
7.65092e-10
-9.99761e-06
1.27116e-09
-9.9969e-06
1.9038e-09
-9.99588e-06
2.72683e-09
-9.99446e-06
3.82437e-09
-9.9925e-06
5.31066e-09
-9.98981e-06
7.34437e-09
-9.98613e-06
1.01504e-08
-9.98113e-06
1.40552e-08
-9.97438e-06
1.9546e-08
-9.96537e-06
2.73797e-08
-9.95364e-06
3.87935e-08
-9.93917e-06
5.5941e-08
-9.92377e-06
8.28523e-08
-9.9151e-06
1.27633e-07
-9.93889e-06
2.07612e-07
-1.00729e-05
3.59555e-07
-1.03284e-05
4.43784e-07
-9.99929e-06
-6.07701e-07
-9.68801e-06
-9.69724e-07
-9.59897e-06
-6.54246e-07
-9.66582e-06
-3.7173e-07
-9.72757e-06
-2.2796e-07
-9.85826e-06
-1.41807e-07
-9.9525e-06
-1.28615e-07
-1.00255e-05
-1.11483e-07
-1.00378e-05
-1.21856e-07
-1.0073e-05
-8.31188e-08
-1.00706e-05
-8.32879e-08
-1.0095e-05
-4.79696e-08
-1.011e-05
-4.0981e-08
-1.01282e-05
-2.60874e-08
-1.0128e-05
-1.94458e-08
-1.01365e-05
-3.48388e-09
-1.01437e-05
2.62735e-09
-1.01532e-05
5.67217e-09
-1.01444e-05
9.45601e-09
-1.0128e-05
-4.95524e-10
-1.0123e-05
5.78838e-09
-1.01262e-05
1.53804e-08
-1.01245e-05
2.23357e-08
-1.01307e-05
2.90213e-08
-1.01204e-05
2.5225e-08
-1.01314e-05
3.55196e-08
-1.01311e-05
3.65111e-08
-1.01249e-05
3.41771e-08
-1.01219e-05
3.22396e-08
-1.0129e-05
4.19805e-08
-1.01245e-05
3.65046e-08
-1.01211e-05
3.9903e-08
-1.01229e-05
3.99652e-08
-1.01309e-05
4.744e-08
-1.01446e-05
5.65986e-08
-1.01387e-05
5.2244e-08
-1.01428e-05
5.13779e-08
-1.01217e-05
3.45965e-08
-1.01006e-05
4.73345e-08
-1.00763e-05
4.66278e-08
-1.00578e-05
4.48081e-08
-1.00625e-05
5.58991e-08
-1.00512e-05
5.28293e-08
-1.00616e-05
6.87996e-08
-1.00838e-05
7.68357e-08
-1.00809e-05
6.6257e-08
-1.00909e-05
7.38276e-08
-1.00886e-05
7.29921e-08
-1.00685e-05
6.727e-08
-1.00343e-05
7.4777e-08
-1.00037e-05
7.71374e-08
-9.99129e-06
7.847e-08
-1.00118e-05
8.68204e-08
-1.00197e-05
8.58746e-08
-9.99826e-06
7.10054e-08
-9.96463e-06
3.79402e-08
-9.92899e-06
2.75762e-08
-9.94175e-06
8.58104e-08
-9.96947e-06
1.00126e-07
-9.95066e-06
7.85189e-08
9.30687e-08
-9.69027e-06
-2.47692e-07
-9.76691e-06
-1.36397e-07
-9.8283e-06
-8.486e-08
-9.87423e-06
-5.67873e-08
-9.90797e-06
-3.95779e-08
-9.93266e-06
-2.82024e-08
-9.95071e-06
-2.03404e-08
-9.96391e-06
-1.47665e-08
-9.97357e-06
-1.07575e-08
-9.98063e-06
-7.85011e-09
-9.98579e-06
-5.73098e-09
-9.98956e-06
-4.18102e-09
-9.99231e-06
-3.04369e-09
-9.99429e-06
-2.2057e-09
-9.99572e-06
-1.58419e-09
-9.99673e-06
-1.11798e-09
-9.99742e-06
-7.61285e-10
-9.99785e-06
-4.79118e-10
-9.99807e-06
-2.43807e-10
-9.9981e-06
-3.22548e-11
-9.99794e-06
1.76346e-10
-9.99758e-06
4.02597e-10
-9.99698e-06
6.68983e-10
-9.99608e-06
1.00222e-09
-9.99478e-06
1.43612e-09
-9.99298e-06
2.01551e-09
-9.99047e-06
2.8016e-09
-9.987e-06
3.88029e-09
-9.98223e-06
5.37526e-09
-9.97564e-06
7.47039e-09
-9.96655e-06
1.04512e-08
-9.95396e-06
1.47886e-08
-9.93649e-06
2.13234e-08
-9.91226e-06
3.17118e-08
-9.87899e-06
4.95828e-08
-9.83512e-06
8.37671e-08
-9.78535e-06
1.57842e-07
-9.74636e-06
3.20557e-07
-9.42709e-06
1.24518e-07
-9.50127e-06
-5.33524e-07
-9.96607e-06
-5.04922e-07
-1.01922e-05
-4.28159e-07
-1.02702e-05
-2.93671e-07
-1.03336e-05
-1.64581e-07
-1.03587e-05
-1.16668e-07
-1.03587e-05
-1.28636e-07
-1.03656e-05
-1.04597e-07
-1.03861e-05
-1.01351e-07
-1.03747e-05
-9.45566e-08
-1.03928e-05
-6.51215e-08
-1.03991e-05
-4.17235e-08
-1.0414e-05
-2.60977e-08
-1.04225e-05
-1.75482e-08
-1.04475e-05
5.56385e-09
-1.04431e-05
-7.86056e-09
-1.04387e-05
-1.81532e-09
-1.04485e-05
1.54497e-08
-1.0445e-05
5.9531e-09
-1.04498e-05
4.35131e-09
-1.04576e-05
1.35659e-08
-1.04723e-05
3.0138e-08
-1.04716e-05
2.16339e-08
-1.04552e-05
1.25768e-08
-1.04412e-05
1.12722e-08
-1.04326e-05
2.6898e-08
-1.04201e-05
2.39817e-08
-1.04086e-05
2.27094e-08
-1.04057e-05
2.932e-08
-1.04003e-05
3.66165e-08
-1.03973e-05
3.34603e-08
-1.0388e-05
3.06197e-08
-1.03795e-05
3.14465e-08
-1.03696e-05
3.752e-08
-1.03664e-05
5.34256e-08
-1.03651e-05
5.09588e-08
-1.03464e-05
3.27043e-08
-1.03425e-05
3.06532e-08
-1.03233e-05
2.81435e-08
-1.03033e-05
2.66644e-08
-1.02935e-05
3.49814e-08
-1.02976e-05
5.99561e-08
-1.02912e-05
4.64284e-08
-1.02708e-05
4.84736e-08
-1.02494e-05
5.54043e-08
-1.02434e-05
6.02638e-08
-1.02248e-05
5.52381e-08
-1.02254e-05
7.35505e-08
-1.02245e-05
6.63683e-08
-1.01895e-05
3.98391e-08
-1.01538e-05
4.13533e-08
-1.01299e-05
5.46132e-08
-1.0119e-05
7.59237e-08
-1.0095e-05
6.1877e-08
-1.00674e-05
4.3384e-08
-1.01031e-05
7.36113e-08
-1.012e-05
4.4542e-08
-1.00643e-05
3.00755e-08
-9.99857e-06
3.44177e-08
-9.98071e-06
6.0661e-08
1.12355e-07
-9.57897e-06
-9.71537e-06
-9.80023e-06
-9.85702e-06
-9.89659e-06
-9.9248e-06
-9.94514e-06
-9.9599e-06
-9.97066e-06
-9.97851e-06
-9.98424e-06
-9.98842e-06
-9.99147e-06
-9.99367e-06
-9.99526e-06
-9.99638e-06
-9.99714e-06
-9.99762e-06
-9.99786e-06
-9.99789e-06
-9.99772e-06
-9.99731e-06
-9.99664e-06
-9.99564e-06
-9.99421e-06
-9.99219e-06
-9.98939e-06
-9.98551e-06
-9.98013e-06
-9.97266e-06
-9.96221e-06
-9.94742e-06
-9.9261e-06
-9.89439e-06
-9.84481e-06
-9.76104e-06
-9.6032e-06
-9.28264e-06
-9.15812e-06
-9.69165e-06
-1.01966e-05
-1.06247e-05
-1.09184e-05
-1.1083e-05
-1.11996e-05
-1.13283e-05
-1.14329e-05
-1.15342e-05
-1.16288e-05
-1.16939e-05
-1.17356e-05
-1.17617e-05
-1.17793e-05
-1.17737e-05
-1.17816e-05
-1.17834e-05
-1.17679e-05
-1.1762e-05
-1.17576e-05
-1.17441e-05
-1.17139e-05
-1.16923e-05
-1.16797e-05
-1.16684e-05
-1.16415e-05
-1.16176e-05
-1.15949e-05
-1.15655e-05
-1.15289e-05
-1.14955e-05
-1.14648e-05
-1.14334e-05
-1.13959e-05
-1.13424e-05
-1.12915e-05
-1.12588e-05
-1.12281e-05
-1.12e-05
-1.11733e-05
-1.11383e-05
-1.10784e-05
-1.1032e-05
-1.09835e-05
-1.09281e-05
-1.08678e-05
-1.08126e-05
-1.0739e-05
-1.06727e-05
-1.06328e-05
-1.05915e-05
-1.05368e-05
-1.04609e-05
-1.0399e-05
-1.03557e-05
-1.02821e-05
-1.02375e-05
-1.02074e-05
-1.0173e-05
-1.01124e-05
)
;

boundaryField
{
    inlet
    {
        type            calculated;
        value           nonuniform List<scalar> 10(-1e-05 -1e-05 -1e-05 -1e-05 -1e-05 -1e-05 -1e-05 -1e-05 -1e-05 -1e-05);
    }
    outlet
    {
        type            calculated;
        value           nonuniform List<scalar> 10(1.06688e-05 1.03793e-05 1.02291e-05 1.01258e-05 1.00404e-05 9.95966e-06 9.87419e-06 9.77097e-06 9.6207e-06 9.33128e-06);
    }
    walls
    {
        type            calculated;
        value           uniform 0;
    }
}


// ************************************************************************* //
