/*--------------------------------*- C++ -*----------------------------------*\
| =========                 |                                                 |
| \\      /  F ield         | foam-extend: Open Source CFD                    |
|  \\    /   O peration     | Version:     5.0                                |
|   \\  /    A nd           | Web:         http://www.foam-extend.org         |
|    \\/     M anipulation  |                                                 |
\*---------------------------------------------------------------------------*/
FoamFile
{
    version     2.0;
    format      ascii;
    class       surfaceScalarField;
    location    "8000";
    object      phi.oil;
}
// * * * * * * * * * * * * * * * * * * * * * * * * * * * * * * * * * * * * * //

dimensions      [0 3 -1 0 0 0 0];

internalField   nonuniform List<scalar> 
1890
(
-6.13004e-05
-1.27022e-06
-5.41298e-05
-7.37282e-07
-4.97552e-05
-4.13951e-07
-4.83001e-05
-3.24499e-07
-5.05172e-05
-2.08305e-07
-6.10621e-05
-1.61156e-07
-6.48703e-05
-1.31228e-07
-6.08493e-05
-9.22907e-08
-5.27862e-05
-5.12263e-08
-5.01076e-05
-4.13163e-08
-5.56433e-05
-2.72903e-08
-5.72092e-05
-2.32278e-08
-5.41004e-05
-1.56087e-08
-5.55909e-05
-1.26041e-08
-5.00239e-05
-8.80132e-09
-4.34942e-05
-5.08219e-09
-4.34909e-05
-3.71459e-09
-5.40671e-05
-2.39757e-09
-5.2643e-05
-1.43854e-09
-5.00107e-05
-1.43166e-10
-4.87918e-05
8.68859e-10
-4.65242e-05
1.89448e-09
-5.40723e-05
3.47481e-09
-6.06325e-05
5.97611e-09
-5.88574e-05
8.03636e-09
-4.76558e-05
1.08926e-08
-4.88314e-05
1.22749e-08
-5.00706e-05
1.89412e-08
-4.45296e-05
2.23525e-08
-4.55726e-05
3.10287e-08
-4.89523e-05
4.10772e-08
-4.78462e-05
6.40505e-08
-4.5748e-05
8.87459e-08
-4.92066e-05
1.05952e-07
-4.70616e-05
1.62593e-07
-4.23356e-05
1.79989e-07
-4.34878e-05
2.68591e-07
-5.28491e-05
3.99734e-07
-5.96611e-05
7.50706e-07
-5.77522e-05
1.28134e-06
-6.38912e-05
2.91969e-06
-6.49354e-05
2.43219e-06
-5.62795e-05
-3.58957e-06
-4.71283e-05
-4.07078e-06
-4.35831e-05
-2.45619e-06
-3.92119e-05
-1.64742e-06
-4.0245e-05
-1.03738e-06
-4.52844e-05
-1.12658e-06
-3.54981e-05
-8.25352e-07
-2.85919e-05
-5.75565e-07
-3.02138e-05
-4.90445e-07
-2.9523e-05
-5.81351e-07
-2.71987e-05
-4.84594e-07
-3.2508e-05
-4.74748e-07
-3.37874e-05
-5.61615e-07
-3.19355e-05
-5.49869e-07
-2.72757e-05
-5.8469e-07
-2.19466e-05
-4.03728e-07
-2.08696e-05
-3.66868e-07
-2.11461e-05
-3.55138e-07
-2.2033e-05
-4.17763e-07
-2.19627e-05
-4.20717e-07
-2.08598e-05
-3.86439e-07
-2.34905e-05
-3.8225e-07
-2.1879e-05
-5.4266e-07
-1.8265e-05
-3.39414e-07
-1.94776e-05
-4.2468e-07
-2.14968e-05
-3.80738e-07
-2.43321e-05
-4.89392e-07
-2.04177e-05
-4.53804e-07
-1.96388e-05
-4.16521e-07
-1.97252e-05
-4.89091e-07
-1.58442e-05
-4.10954e-07
-1.42271e-05
-3.58785e-07
-1.30856e-05
-3.49213e-07
-1.33512e-05
-2.9278e-07
-1.3169e-05
-3.24707e-07
-1.28276e-05
-3.00202e-07
-1.29573e-05
-3.35891e-07
-1.14815e-05
-3.11632e-07
-1.1415e-05
-3.07154e-07
-1.31233e-05
-3.65947e-07
-1.16092e-05
-3.66292e-07
-9.55708e-06
-3.06416e-07
-9.48107e-06
-3.09573e-07
-8.89702e-06
-2.94707e-07
-8.30366e-06
-2.64245e-07
-7.71168e-06
-2.53104e-07
-6.80377e-06
-2.65445e-07
-5.90387e-06
-2.257e-07
-5.11112e-06
-2.1166e-07
-4.68489e-06
-2.02953e-07
-5.08778e-06
-2.18412e-07
-4.48349e-06
-2.20678e-07
-3.43821e-06
-1.73496e-07
-2.71193e-06
-1.7238e-07
-1.89507e-06
-1.16365e-07
-1.46959e-06
-1.24738e-07
-7.4803e-07
-9.26623e-08
-5.97154e-08
-4.90941e-05
-1.44211e-06
-5.11656e-05
-1.12124e-06
-5.81242e-05
-8.60328e-07
-6.53278e-05
-5.86921e-07
-6.1164e-05
-4.58263e-07
-6.10144e-05
-2.64456e-07
-6.28083e-05
-2.13292e-07
-4.89567e-05
-1.39841e-07
-4.77451e-05
-9.95781e-08
-5.0097e-05
-9.03752e-08
-4.76869e-05
-5.06641e-08
-5.00524e-05
-4.41633e-08
-5.40958e-05
-2.89403e-08
-5.71757e-05
-2.26754e-08
-5.00216e-05
-1.72181e-08
-5.1299e-05
-1.14952e-08
-5.71578e-05
-7.06528e-09
-5.40659e-05
-4.34299e-09
-4.65208e-05
-2.26862e-09
-4.25614e-05
-2.96805e-10
-4.87907e-05
1.69677e-09
-5.40673e-05
3.69444e-09
-5.88415e-05
6.61542e-09
-5.71654e-05
1.07293e-08
-5.40822e-05
1.27557e-08
-5.26684e-05
2.26413e-08
-4.7664e-05
2.57385e-08
-4.55127e-05
3.35443e-08
-4.55334e-05
4.57015e-08
-4.45492e-05
5.92435e-08
-4.66603e-05
8.82662e-08
-5.73905e-05
1.19276e-07
-5.43711e-05
1.69354e-07
-5.03962e-05
2.11533e-07
-4.81278e-05
3.07861e-07
-4.71802e-05
4.06188e-07
-5.09639e-05
5.40598e-07
-5.12819e-05
8.30859e-07
-5.29864e-05
1.14099e-06
-5.94539e-05
1.80663e-06
-6.16418e-05
2.18504e-06
-4.63373e-05
-1.54204e-06
-3.41792e-05
-3.69381e-06
-3.30242e-05
-3.58316e-06
-3.2853e-05
-2.39976e-06
-3.24e-05
-2.02173e-06
-3.09906e-05
-1.30117e-06
-3.0959e-05
-1.28775e-06
-2.74012e-05
-1.05185e-06
-2.65146e-05
-8.04432e-07
-2.70443e-05
-8.55181e-07
-2.87323e-05
-8.74308e-07
-2.32494e-05
-7.25677e-07
-2.0003e-05
-5.76762e-07
-2.35471e-05
-6.14472e-07
-2.83133e-05
-7.2112e-07
-2.45854e-05
-7.20188e-07
-1.94557e-05
-6.14056e-07
-1.72666e-05
-5.30946e-07
-1.96285e-05
-4.80689e-07
-2.26918e-05
-6.93803e-07
-1.83473e-05
-5.73145e-07
-1.65337e-05
-5.20862e-07
-1.96243e-05
-5.44919e-07
-1.7811e-05
-6.50127e-07
-1.70829e-05
-4.36465e-07
-1.72441e-05
-5.704e-07
-1.57441e-05
-4.8679e-07
-1.58072e-05
-6.14622e-07
-1.60219e-05
-5.15182e-07
-1.81289e-05
-5.59998e-07
-1.756e-05
-5.34029e-07
-1.71017e-05
-5.48165e-07
-1.65187e-05
-4.67054e-07
-1.32111e-05
-5.27864e-07
-1.02103e-05
-3.91267e-07
-1.01817e-05
-3.759e-07
-1.02075e-05
-4.19266e-07
-9.96869e-06
-3.78407e-07
-1.02282e-05
-4.39302e-07
-1.14862e-05
-4.17326e-07
-1.02208e-05
-5.20734e-07
-9.29309e-06
-3.48539e-07
-1.02889e-05
-4.08727e-07
-8.9609e-06
-4.23511e-07
-7.06659e-06
-3.48697e-07
-5.81422e-06
-3.14453e-07
-6.19875e-06
-2.77947e-07
-6.6699e-06
-3.17015e-07
-5.77278e-06
-2.93758e-07
-5.83921e-06
-2.97817e-07
-5.42807e-06
-2.9342e-07
-3.88434e-06
-2.49617e-07
-3.23838e-06
-2.12362e-07
-3.41011e-06
-2.04798e-07
-2.91352e-06
-1.96677e-07
-2.15128e-06
-1.57149e-07
-1.58705e-06
-1.66769e-07
-5.77947e-07
-8.73734e-08
-7.61721e-08
-5.10277e-05
-1.54905e-06
-6.35397e-05
-1.40127e-06
-5.95776e-05
-1.1526e-06
-5.60912e-05
-6.40378e-07
-5.16494e-05
-5.03118e-07
-4.67576e-05
-3.77095e-07
-4.56314e-05
-2.38046e-07
-5.01428e-05
-1.82382e-07
-6.2631e-05
-1.55647e-07
-5.5641e-05
-1.24189e-07
-5.41151e-05
-8.32159e-08
-5.56017e-05
-5.75562e-08
-5.00307e-05
-3.88498e-08
-5.40787e-05
-2.62403e-08
-6.25214e-05
-2.24153e-08
-5.12955e-05
-1.77384e-08
-4.16753e-05
-1.02225e-08
-4.34858e-05
-6.43665e-09
-4.87881e-05
-2.9085e-09
-5.71517e-05
-4.60051e-10
-5.12906e-05
2.85105e-09
-4.76283e-05
4.85489e-09
-5.12945e-05
9.62511e-09
-4.7634e-05
1.23278e-08
-5.26534e-05
1.80242e-08
-5.71747e-05
3.03305e-08
-5.00377e-05
3.5551e-08
-5.00512e-05
5.26416e-08
-4.76853e-05
6.64102e-08
-5.13792e-05
7.68401e-08
-5.41933e-05
1.28851e-07
-4.66745e-05
1.47114e-07
-4.78451e-05
2.41232e-07
-5.16108e-05
2.72756e-07
-5.7635e-05
4.60063e-07
-5.61935e-05
6.348e-07
-5.63963e-05
6.57397e-07
-6.1787e-05
1.07263e-06
-6.39736e-05
1.22838e-06
-6.62687e-05
1.94551e-06
-5.45826e-05
4.89806e-07
-4.29008e-05
-3.2409e-06
-4.35924e-05
-3.77784e-06
-4.00895e-05
-3.31477e-06
-3.24275e-05
-2.08238e-06
-2.83277e-05
-1.77936e-06
-2.63778e-05
-1.14528e-06
-3.02708e-05
-1.12411e-06
-2.65518e-05
-1.14821e-06
-2.58389e-05
-8.27969e-07
-3.19584e-05
-9.9614e-07
-2.54271e-05
-8.56119e-07
-2.11988e-05
-7.03457e-07
-2.15439e-05
-6.38762e-07
-2.2064e-05
-7.09183e-07
-2.14934e-05
-6.05898e-07
-2.20392e-05
-6.02375e-07
-2.21339e-05
-6.51297e-07
-1.9481e-05
-6.20115e-07
-2.03667e-05
-5.84991e-07
-2.05603e-05
-6.23446e-07
-1.8902e-05
-5.05251e-07
-2.00046e-05
-5.60043e-07
-1.95086e-05
-5.34322e-07
-1.6342e-05
-5.98697e-07
-1.43887e-05
-5.10501e-07
-1.60534e-05
-4.85019e-07
-1.84278e-05
-5.97544e-07
-1.85424e-05
-5.42312e-07
-1.52786e-05
-5.43689e-07
-1.33563e-05
-4.92614e-07
-1.32364e-05
-4.37423e-07
-1.1959e-05
-4.88518e-07
-1.19744e-05
-3.82135e-07
-1.35038e-05
-4.48542e-07
-1.30624e-05
-4.73837e-07
-1.32716e-05
-4.19533e-07
-1.21937e-05
-4.87398e-07
-1.19085e-05
-3.77161e-07
-1.19344e-05
-4.90244e-07
-1.10176e-05
-3.85648e-07
-9.61972e-06
-4.1969e-07
-7.82527e-06
-3.12107e-07
-8.72876e-06
-3.10891e-07
-8.63692e-06
-4.06614e-07
-8.07277e-06
-3.05598e-07
-7.34566e-06
-3.55994e-07
-5.75597e-06
-2.7217e-07
-5.39119e-06
-2.44351e-07
-5.5645e-06
-2.62005e-07
-5.05279e-06
-2.66261e-07
-4.18412e-06
-2.27279e-07
-3.88105e-06
-2.16094e-07
-3.25435e-06
-1.88328e-07
-2.50535e-06
-1.56991e-07
-2.31958e-06
-1.42805e-07
-2.48214e-06
-1.77221e-07
-1.55318e-06
-1.4163e-07
-6.14015e-07
-7.77659e-08
-7.54692e-08
-5.05849e-05
-1.94256e-06
-5.6103e-05
-1.25894e-06
-5.03913e-05
-1.2041e-06
-4.47113e-05
-6.63841e-07
-5.28693e-05
-4.91227e-07
-5.14544e-05
-4.26783e-07
-4.77373e-05
-2.91143e-07
-5.27278e-05
-2.13553e-07
-5.41267e-05
-1.93298e-07
-6.06659e-05
-1.20289e-07
-5.40933e-05
-1.09973e-07
-4.65365e-05
-6.58989e-08
-4.4462e-05
-4.16011e-08
-4.54679e-05
-2.82728e-08
-5.26432e-05
-2.3778e-08
-6.06163e-05
-1.72024e-08
-6.66756e-05
-1.37836e-08
-5.40601e-05
-9.83534e-09
-4.87854e-05
-3.95716e-09
-5.71485e-05
-5.67364e-10
-5.55615e-05
2.68702e-09
-5.40609e-05
5.58705e-09
-5.12901e-05
1.10297e-08
-4.87904e-05
1.38648e-08
-5.40686e-05
2.0261e-08
-5.13006e-05
3.20197e-08
-5.40806e-05
3.81735e-08
-5.40902e-05
5.75913e-08
-4.44851e-05
8.50525e-08
-4.35327e-05
9.12012e-08
-4.35528e-05
1.38646e-07
-5.14025e-05
1.71468e-07
-5.14466e-05
2.87716e-07
-5.0218e-05
3.5761e-07
-5.91689e-05
5.79563e-07
-4.79911e-05
6.52919e-07
-4.59223e-05
7.52891e-07
-4.60732e-05
1.07758e-06
-5.09113e-05
1.31923e-06
-5.27793e-05
1.45251e-06
-4.23743e-05
-1.84897e-06
-3.75564e-05
-3.72299e-06
-3.96387e-05
-3.42332e-06
-3.56507e-05
-2.77497e-06
-3.54213e-05
-1.96227e-06
-3.16691e-05
-2.05015e-06
-2.59611e-05
-1.21348e-06
-2.82703e-05
-1.06741e-06
-3.05885e-05
-1.01458e-06
-3.06627e-05
-9.76774e-07
-2.7325e-05
-8.88151e-07
-2.6506e-05
-8.54216e-07
-2.5868e-05
-7.29404e-07
-2.58494e-05
-7.83602e-07
-2.27618e-05
-8.35241e-07
-1.90663e-05
-5.71303e-07
-2.03469e-05
-5.73589e-07
-2.20336e-05
-6.35996e-07
-2.3418e-05
-6.70698e-07
-2.10913e-05
-6.50508e-07
-1.68524e-05
-5.72637e-07
-1.59595e-05
-5.19579e-07
-1.58739e-05
-4.9116e-07
-1.72953e-05
-5.622e-07
-2.11691e-05
-5.93821e-07
-1.89501e-05
-5.91234e-07
-1.78246e-05
-5.2567e-07
-1.61343e-05
-6.46703e-07
-1.37681e-05
-4.79642e-07
-1.50532e-05
-4.62027e-07
-1.363e-05
-5.05897e-07
-1.33625e-05
-4.29065e-07
-1.30808e-05
-5.7113e-07
-1.13799e-05
-4.49357e-07
-1.2664e-05
-4.34026e-07
-1.22841e-05
-5.35541e-07
-1.17508e-05
-4.80979e-07
-1.1074e-05
-4.2402e-07
-1.05156e-05
-4.43822e-07
-1.04e-05
-4.15925e-07
-9.16052e-06
-3.74087e-07
-8.50665e-06
-3.89904e-07
-7.66765e-06
-3.81553e-07
-8.45221e-06
-3.23618e-07
-8.88004e-06
-4.51567e-07
-7.99858e-06
-3.4322e-07
-8.2874e-06
-3.79538e-07
-7.09429e-06
-3.28695e-07
-6.69747e-06
-3.19048e-07
-6.4541e-06
-3.31411e-07
-5.70634e-06
-2.86991e-07
-5.07647e-06
-2.69245e-07
-3.78754e-06
-2.28471e-07
-2.99864e-06
-1.80064e-07
-2.84085e-06
-1.93259e-07
-2.65272e-06
-1.99504e-07
-2.18232e-06
-2.00581e-07
-1.43783e-06
-1.43965e-07
-9.16502e-07
-1.26738e-07
-7.5933e-08
-5.14769e-05
-2.01169e-06
-4.89393e-05
-1.20044e-06
-5.01312e-05
-1.14064e-06
-4.26398e-05
-7.55119e-07
-4.26188e-05
-5.75195e-07
-4.76739e-05
-4.35602e-07
-4.76597e-05
-3.20605e-07
-5.26647e-05
-2.00357e-07
-5.40791e-05
-2.09225e-07
-5.12995e-05
-1.33071e-07
-5.88383e-05
-9.48517e-08
-4.87895e-05
-7.30239e-08
-4.16724e-05
-4.68621e-08
-4.4449e-05
-3.48013e-08
-4.65152e-05
-2.69745e-08
-4.87834e-05
-1.9039e-08
-5.88263e-05
-1.3317e-08
-6.45187e-05
-1.00064e-08
-6.06082e-05
-4.93841e-09
-4.87822e-05
-5.92447e-10
-4.16683e-05
2.41028e-09
-4.54566e-05
6.47446e-09
-4.76217e-05
1.04881e-08
-4.34814e-05
1.73814e-08
-4.54589e-05
1.99804e-08
-4.65177e-05
3.67113e-08
-4.25608e-05
4.13047e-08
-5.00124e-05
5.95192e-08
-5.12997e-05
8.35311e-08
-4.65341e-05
1.17032e-07
-4.76516e-05
1.48148e-07
-4.54986e-05
2.06375e-07
-5.27042e-05
2.66615e-07
-6.07242e-05
3.96034e-07
-5.27738e-05
6.44746e-07
-4.77907e-05
6.99141e-07
-4.67256e-05
9.19816e-07
-4.68166e-05
1.11752e-06
-4.52227e-05
1.81665e-06
-5.29443e-05
1.51224e-06
-5.75754e-05
-4.28515e-06
-4.21845e-05
-4.33397e-06
-3.70051e-05
-3.08903e-06
-3.28634e-05
-2.09878e-06
-3.3596e-05
-1.66593e-06
-3.4425e-05
-1.60322e-06
-2.72473e-05
-1.34521e-06
-2.41025e-05
-1.02979e-06
-2.43025e-05
-9.65365e-07
-2.46698e-05
-9.2247e-07
-2.72525e-05
-8.2648e-07
-2.46704e-05
-9.29405e-07
-2.43441e-05
-6.31198e-07
-3.03255e-05
-7.78349e-07
-2.47666e-05
-7.77831e-07
-2.05747e-05
-6.60289e-07
-2.10098e-05
-6.15321e-07
-2.27852e-05
-6.30348e-07
-2.1716e-05
-7.29843e-07
-2.0548e-05
-5.42186e-07
-2.12042e-05
-6.54399e-07
-1.81784e-05
-5.56522e-07
-1.89317e-05
-5.12284e-07
-2.02296e-05
-5.70164e-07
-1.63708e-05
-5.41379e-07
-1.58614e-05
-4.74258e-07
-1.79899e-05
-4.82085e-07
-1.76412e-05
-6.56467e-07
-1.39853e-05
-4.63912e-07
-1.28735e-05
-4.26064e-07
-1.33394e-05
-5.0155e-07
-1.49669e-05
-4.3964e-07
-1.68936e-05
-4.99481e-07
-1.42091e-05
-5.34742e-07
-1.39861e-05
-4.51807e-07
-1.63872e-05
-5.06103e-07
-1.22656e-05
-5.00597e-07
-1.13132e-05
-3.82448e-07
-1.10575e-05
-4.70446e-07
-8.71449e-06
-3.36796e-07
-9.01439e-06
-3.26326e-07
-1.00055e-05
-3.66391e-07
-8.70164e-06
-3.92711e-07
-8.11184e-06
-3.30805e-07
-8.1939e-06
-3.83184e-07
-7.11732e-06
-3.4298e-07
-6.39407e-06
-3.3075e-07
-5.98285e-06
-2.67845e-07
-6.14497e-06
-2.7983e-07
-5.52956e-06
-2.67907e-07
-4.79686e-06
-2.67137e-07
-4.0985e-06
-2.5101e-07
-3.5588e-06
-2.13425e-07
-3.48986e-06
-2.24367e-07
-3.7199e-06
-2.17181e-07
-3.23912e-06
-2.50307e-07
-2.14743e-06
-2.18999e-07
-1.31783e-06
-1.44743e-07
-8.50688e-07
-1.29592e-07
-8.57349e-08
-4.74383e-05
-1.84032e-06
-4.74642e-05
-1.46309e-06
-5.11477e-05
-1.13721e-06
-5.54427e-05
-7.44797e-07
-5.87331e-05
-6.27679e-07
-5.25711e-05
-4.38014e-07
-4.44067e-05
-2.77909e-07
-4.75892e-05
-1.90835e-07
-5.87965e-05
-1.99155e-07
-5.26138e-05
-1.37473e-07
-4.76073e-05
-9.02346e-08
-5.2622e-05
-5.84103e-08
-5.71352e-05
-4.80012e-08
-5.88177e-05
-3.47971e-08
-6.06016e-05
-2.43721e-08
-5.88202e-05
-1.76429e-08
-5.8821e-05
-1.30166e-08
-6.24977e-05
-7.37442e-09
-5.7141e-05
-4.55207e-09
-4.76175e-05
-4.91278e-10
-5.12803e-05
2.70002e-09
-5.40519e-05
6.85518e-09
-5.55528e-05
1.02464e-08
-5.40505e-05
1.75223e-08
-5.40494e-05
2.24911e-08
-5.71363e-05
4.09211e-08
-5.40458e-05
4.24896e-08
-4.87706e-05
6.68613e-08
-4.99866e-05
8.2397e-08
-5.26134e-05
1.22421e-07
-4.87592e-05
1.37274e-07
-4.99734e-05
2.36323e-07
-4.54268e-05
2.75745e-07
-5.25977e-05
3.75136e-07
-6.05688e-05
6.08533e-07
-5.55167e-05
6.60914e-07
-4.98976e-05
7.89838e-07
-4.4009e-05
7.49031e-07
-5.08329e-05
1.73238e-07
-5.35411e-05
-8.43059e-07
-4.1947e-05
-2.31913e-06
-4.33842e-05
-3.25552e-06
-3.65978e-05
-3.10874e-06
-3.03085e-05
-1.94576e-06
-3.04822e-05
-1.94377e-06
-3.22838e-05
-1.45962e-06
-3.66866e-05
-1.49232e-06
-3.55603e-05
-1.16502e-06
-3.4586e-05
-1.12442e-06
-3.06613e-05
-9.31224e-07
-2.88827e-05
-9.09148e-07
-2.53214e-05
-9.24729e-07
-2.16265e-05
-7.13672e-07
-2.26151e-05
-5.98899e-07
-2.52369e-05
-7.1081e-07
-2.54671e-05
-6.70946e-07
-2.28236e-05
-6.58898e-07
-2.41877e-05
-5.45673e-07
-2.12975e-05
-6.53205e-07
-2.00396e-05
-5.11082e-07
-2.02578e-05
-6.81367e-07
-1.81885e-05
-5.10064e-07
-1.69609e-05
-5.38629e-07
-1.63854e-05
-4.34182e-07
-1.6829e-05
-5.71356e-07
-1.4871e-05
-4.74261e-07
-1.70315e-05
-4.78591e-07
-1.63569e-05
-5.63387e-07
-1.33277e-05
-4.43062e-07
-1.56076e-05
-4.43882e-07
-1.49099e-05
-4.86871e-07
-1.21505e-05
-4.59286e-07
-1.28199e-05
-4.31541e-07
-1.37626e-05
-4.53351e-07
-1.26458e-05
-4.15159e-07
-1.18654e-05
-4.15906e-07
-1.2031e-05
-4.32909e-07
-1.18978e-05
-3.81305e-07
-1.0378e-05
-3.88856e-07
-9.00194e-06
-3.51942e-07
-8.94229e-06
-3.5952e-07
-9.37905e-06
-3.71281e-07
-9.94129e-06
-3.54228e-07
-9.79125e-06
-4.07341e-07
-9.55586e-06
-3.507e-07
-9.13633e-06
-3.57134e-07
-7.16192e-06
-3.11329e-07
-5.76032e-06
-2.64124e-07
-5.27773e-06
-2.27312e-07
-5.51445e-06
-2.32294e-07
-6.02431e-06
-2.56571e-07
-5.01234e-06
-2.77187e-07
-4.25862e-06
-2.10266e-07
-3.68574e-06
-2.00377e-07
-3.13965e-06
-1.67725e-07
-3.53785e-06
-2.19311e-07
-2.42154e-06
-1.65333e-07
-1.3684e-06
-1.03003e-07
-7.60686e-07
-7.57489e-08
-4.1969e-08
-5.98973e-05
-1.84211e-06
-6.38806e-05
-1.68152e-06
-5.22199e-05
-1.0538e-06
-4.84877e-05
-6.89638e-07
-4.97743e-05
-4.9054e-07
-4.5302e-05
-3.5824e-07
-4.33705e-05
-2.68565e-07
-5.25355e-05
-1.6298e-07
-5.87447e-05
-1.47455e-07
-5.55009e-05
-9.99573e-08
-4.87453e-05
-7.48943e-08
-4.44209e-05
-5.20746e-08
-4.64934e-05
-4.0842e-08
-4.44316e-05
-2.62401e-08
-4.34688e-05
-1.80293e-08
-4.87724e-05
-1.33029e-08
-4.76128e-05
-1.10724e-08
-4.87752e-05
-5.83477e-09
-5.12771e-05
-3.87049e-09
-5.12771e-05
-4.48025e-10
-5.40484e-05
2.42302e-09
-5.12758e-05
5.12946e-09
-5.12742e-05
8.12441e-09
-5.40434e-05
1.18863e-08
-6.24836e-05
2.33939e-08
-5.71228e-05
3.49631e-08
-5.26067e-05
4.15559e-08
-6.05673e-05
5.73491e-08
-5.70935e-05
7.90113e-08
-4.75637e-05
1.00284e-07
-5.25499e-05
1.31489e-07
-5.54417e-05
1.96708e-07
-5.24922e-05
2.40617e-07
-5.38758e-05
4.14156e-07
-4.74372e-05
5.77956e-07
-4.23942e-05
6.81502e-07
-4.33939e-05
7.82251e-07
-5.42803e-05
1.00239e-06
-6.04505e-05
9.91266e-07
-6.04585e-05
-1.58345e-06
-5.69702e-05
-4.2499e-06
-4.11625e-05
-3.67864e-06
-3.09387e-05
-2.1699e-06
-3.00536e-05
-1.5887e-06
-3.07411e-05
-1.56448e-06
-2.66613e-05
-1.15458e-06
-2.45401e-05
-1.06224e-06
-2.33935e-05
-9.73089e-07
-2.3304e-05
-8.61755e-07
-2.47624e-05
-8.78535e-07
-3.05849e-05
-8.76166e-07
-3.09471e-05
-9.20965e-07
-2.39255e-05
-7.62884e-07
-2.2489e-05
-6.23778e-07
-2.33364e-05
-7.48807e-07
-2.1489e-05
-5.99567e-07
-1.95454e-05
-5.80622e-07
-1.80495e-05
-5.67319e-07
-1.99049e-05
-6.40832e-07
-2.22425e-05
-5.70951e-07
-2.25101e-05
-6.43724e-07
-1.956e-05
-6.09962e-07
-1.71929e-05
-4.96466e-07
-1.8426e-05
-5.28714e-07
-2.03047e-05
-5.36389e-07
-1.91578e-05
-5.45813e-07
-1.77087e-05
-6.21054e-07
-1.62484e-05
-4.87131e-07
-1.58284e-05
-4.83003e-07
-1.35547e-05
-4.7721e-07
-1.47359e-05
-4.25217e-07
-1.66499e-05
-5.42769e-07
-1.36417e-05
-4.63205e-07
-1.13927e-05
-3.89953e-07
-1.11467e-05
-4.07249e-07
-1.24709e-05
-3.92463e-07
-1.0943e-05
-4.86112e-07
-9.68664e-06
-3.72855e-07
-1.0719e-05
-4.20446e-07
-1.18194e-05
-4.40824e-07
-1.17235e-05
-3.92605e-07
-9.51762e-06
-4.557e-07
-8.91624e-06
-3.17668e-07
-8.80373e-06
-3.5633e-07
-7.4697e-06
-3.44804e-07
-7.00251e-06
-2.96453e-07
-7.20049e-06
-2.9539e-07
-6.82881e-06
-3.33225e-07
-5.92583e-06
-2.87331e-07
-5.62367e-06
-3.02297e-07
-5.64203e-06
-2.68466e-07
-5.76016e-06
-2.75492e-07
-4.15831e-06
-2.50471e-07
-3.53456e-06
-2.00369e-07
-3.99327e-06
-2.44597e-07
-2.80374e-06
-2.47948e-07
-1.80626e-06
-1.42059e-07
-1.45185e-06
-1.40849e-07
-6.65505e-07
-1.01582e-07
-8.88509e-08
-5.76147e-05
-1.71494e-06
-5.78452e-05
-1.21735e-06
-5.48436e-05
-7.31278e-07
-5.21243e-05
-6.41944e-07
-4.9642e-05
-3.41033e-07
-5.68409e-05
-2.58006e-07
-4.98057e-05
-2.32682e-07
-4.24318e-05
-1.30085e-07
-4.43514e-05
-1.02068e-07
-4.43762e-05
-8.06049e-08
-4.87255e-05
-4.73599e-08
-5.55096e-05
-4.41632e-08
-4.99695e-05
-3.30745e-08
-4.44243e-05
-2.09745e-08
-4.54391e-05
-1.46979e-08
-5.12688e-05
-1.11917e-08
-5.4043e-05
-7.62118e-09
-5.71331e-05
-4.2389e-09
-6.24905e-05
-2.57685e-09
-5.40459e-05
-3.23866e-10
-4.76113e-05
1.8615e-09
-4.44359e-05
3.73216e-09
-4.16567e-05
5.91236e-09
-5.12661e-05
8.2774e-09
-6.66392e-05
1.47396e-08
-6.66298e-05
2.3178e-08
-6.24531e-05
3.31916e-08
-5.3999e-05
4.08021e-08
-5.25586e-05
4.61384e-08
-5.54507e-05
6.69294e-08
-5.11507e-05
1.11691e-07
-4.63506e-05
1.5211e-07
-5.23876e-05
1.98941e-07
-6.41237e-05
3.39036e-07
-6.20236e-05
5.52349e-07
-4.95755e-05
7.29331e-07
-4.32125e-05
9.22719e-07
-4.38043e-05
1.75399e-06
-5.22424e-05
1.90173e-06
-5.56473e-05
-3.51494e-06
-4.72831e-05
-4.37627e-06
-4.01551e-05
-3.3793e-06
-3.17155e-05
-1.57141e-06
-3.12646e-05
-1.40554e-06
-2.50754e-05
-1.01539e-06
-2.31134e-05
-8.69164e-07
-2.57518e-05
-8.75911e-07
-2.52334e-05
-9.22978e-07
-2.52776e-05
-8.24074e-07
-2.69983e-05
-8.74096e-07
-2.40792e-05
-7.82569e-07
-2.24281e-05
-7.44589e-07
-2.11541e-05
-6.00743e-07
-2.34676e-05
-5.85055e-07
-2.23648e-05
-7.05082e-07
-1.88228e-05
-5.97747e-07
-2.05067e-05
-4.664e-07
-2.62858e-05
-7.28841e-07
-2.14787e-05
-6.12249e-07
-1.82817e-05
-4.83761e-07
-1.97487e-05
-4.93838e-07
-1.74864e-05
-5.71005e-07
-1.72661e-05
-4.48162e-07
-1.69969e-05
-5.59933e-07
-1.55821e-05
-4.22607e-07
-1.94044e-05
-5.28375e-07
-1.79571e-05
-5.99258e-07
-1.44899e-05
-4.32275e-07
-1.4342e-05
-4.30487e-07
-1.46714e-05
-4.37767e-07
-1.41971e-05
-4.36147e-07
-1.34425e-05
-4.42589e-07
-1.15339e-05
-4.05138e-07
-1.23908e-05
-3.54173e-07
-1.24482e-05
-4.59137e-07
-1.21302e-05
-3.76005e-07
-1.40781e-05
-4.35345e-07
-1.35463e-05
-4.52903e-07
-1.31397e-05
-4.76125e-07
-9.87208e-06
-3.96249e-07
-9.71891e-06
-3.00808e-07
-9.50399e-06
-4.10637e-07
-7.35276e-06
-2.92391e-07
-8.11826e-06
-3.08375e-07
-7.81381e-06
-3.41938e-07
-6.70362e-06
-2.77218e-07
-7.30148e-06
-2.84385e-07
-7.95827e-06
-2.98962e-07
-8.02516e-06
-3.50444e-07
-6.66175e-06
-3.36143e-07
-4.91868e-06
-2.54492e-07
-4.22549e-06
-2.07906e-07
-4.28276e-06
-2.29031e-07
-4.13018e-06
-2.3742e-07
-3.94522e-06
-2.01355e-07
-2.96455e-06
-1.92311e-07
-1.85248e-06
-1.27627e-07
-1.43944e-06
-1.16076e-07
-9.42409e-07
-1.06417e-07
-5.85762e-08
-5.10014e-05
-1.17949e-06
-4.76434e-05
-7.37282e-07
-5.46017e-05
-4.3518e-07
-5.33742e-05
-2.9888e-07
-4.50362e-05
-2.13935e-07
-5.09367e-05
-1.44628e-07
-5.52817e-05
-1.09948e-07
-5.53551e-05
-6.86815e-08
-6.23348e-05
-5.81489e-08
-5.25296e-05
-4.13164e-08
-4.87112e-05
-2.93896e-08
-5.70832e-05
-2.09051e-08
-5.70989e-05
-1.60194e-08
-5.55239e-05
-1.19227e-08
-5.71184e-05
-8.12405e-09
-5.40364e-05
-5.45355e-09
-4.54428e-05
-3.54086e-09
-4.54448e-05
-2.39559e-09
-4.76099e-05
-1.39318e-09
-5.40438e-05
-1.5734e-10
-5.71311e-05
1.10216e-09
-5.12696e-05
1.96389e-09
-4.87657e-05
3.18563e-09
-4.54367e-05
4.77246e-09
-4.99739e-05
7.00549e-09
-5.71027e-05
9.83174e-09
-5.55026e-05
1.751e-08
-4.64512e-05
1.89282e-08
-4.15926e-05
2.33707e-08
-4.86617e-05
3.17889e-08
-6.22909e-05
6.14777e-08
-6.22122e-05
9.54101e-08
-5.84499e-05
1.18463e-07
-6.19516e-05
1.71415e-07
-5.98727e-05
2.54271e-07
-4.91756e-05
4.29575e-07
-4.89286e-05
8.30746e-07
-4.67506e-05
1.64496e-06
-4.36845e-05
5.82872e-07
-3.88697e-05
-3.06745e-06
-3.28234e-05
-2.4187e-06
-3.49539e-05
-2.11523e-06
-3.1914e-05
-1.35974e-06
-3.3995e-05
-1.18307e-06
-3.0949e-05
-1.11572e-06
-2.84519e-05
-7.94429e-07
-2.55724e-05
-8.66788e-07
-2.55606e-05
-6.37016e-07
-2.58567e-05
-7.56494e-07
-2.4792e-05
-5.65469e-07
-2.66029e-05
-6.99931e-07
-2.25357e-05
-5.55409e-07
-1.94393e-05
-4.79671e-07
-2.11537e-05
-4.33101e-07
-2.47093e-05
-5.46208e-07
-1.89532e-05
-4.66491e-07
-1.96748e-05
-3.84395e-07
-2.05228e-05
-5.23694e-07
-1.59954e-05
-3.80731e-07
-1.54868e-05
-3.42785e-07
-1.73448e-05
-3.90691e-07
-1.83849e-05
-4.29155e-07
-1.74301e-05
-3.84439e-07
-1.65553e-05
-3.7213e-07
-1.69602e-05
-3.78592e-07
-1.86204e-05
-4.07761e-07
-1.54512e-05
-4.18807e-07
-1.38048e-05
-3.09488e-07
-1.38149e-05
-3.69034e-07
-1.30146e-05
-3.13743e-07
-1.32715e-05
-3.31239e-07
-1.28597e-05
-3.25677e-07
-1.2146e-05
-3.12961e-07
-1.20038e-05
-3.14269e-07
-1.22576e-05
-3.48123e-07
-1.07151e-05
-3.09866e-07
-1.07059e-05
-2.75969e-07
-1.22567e-05
-3.41474e-07
-1.06055e-05
-3.28072e-07
-8.72634e-06
-2.66393e-07
-8.65059e-06
-2.65854e-07
-8.95437e-06
-2.80865e-07
-8.93688e-06
-2.59022e-07
-8.58615e-06
-2.95632e-07
-7.47654e-06
-2.60817e-07
-6.8569e-06
-2.33445e-07
-6.24096e-06
-2.4145e-07
-6.71767e-06
-2.36145e-07
-7.6841e-06
-2.69938e-07
-6.37789e-06
-2.67034e-07
-5.0479e-06
-2.10691e-07
-4.77089e-06
-2.05288e-07
-4.74024e-06
-2.18565e-07
-3.53511e-06
-1.90198e-07
-2.53441e-06
-1.51633e-07
-2.48463e-06
-1.43858e-07
-2.62334e-06
-1.60984e-07
-1.7721e-06
-1.31571e-07
-8.3864e-07
-7.73588e-08
-3.94805e-08
-4.67267e-05
-5.55164e-05
-4.7806e-05
-5.1879e-05
-6.18537e-05
-5.36476e-05
-4.52052e-05
-4.52723e-05
-4.63752e-05
-5.11719e-05
-5.25486e-05
-4.64578e-05
-4.99573e-05
-4.99684e-05
-4.44234e-05
-4.25378e-05
-5.12674e-05
-6.45007e-05
-5.88109e-05
-5.55438e-05
-5.26196e-05
-4.54423e-05
-4.6496e-05
-5.12597e-05
-4.75915e-05
-5.25905e-05
-5.39967e-05
-4.53887e-05
-4.43561e-05
-4.98633e-05
-6.0377e-05
-5.68424e-05
-5.09031e-05
-4.49745e-05
-4.37547e-05
-5.27624e-05
-5.19426e-05
-4.61841e-05
-4.59957e-05
-4.00406e-05
-3.23525e-05
-2.64825e-05
-2.73016e-05
-3.35538e-05
-2.57612e-05
-2.1293e-05
-2.06652e-05
-1.77704e-05
-1.74244e-05
-1.87562e-05
-2.04126e-05
-1.79248e-05
-1.86181e-05
-1.93944e-05
-1.65311e-05
-1.68653e-05
-1.79063e-05
-1.54116e-05
-1.32589e-05
-1.5513e-05
-1.77143e-05
-1.39366e-05
-1.17407e-05
-1.26775e-05
-1.41564e-05
-1.34457e-05
-1.21723e-05
-1.23418e-05
-1.24618e-05
-1.08891e-05
-1.05504e-05
-1.02117e-05
-1.11835e-05
-1.30978e-05
-1.04832e-05
-8.24127e-06
-8.4328e-06
-8.56398e-06
-7.65508e-06
-8.37175e-06
-8.93808e-06
-7.23862e-06
-7.37934e-06
-7.96056e-06
-6.64661e-06
-6.45548e-06
-7.24838e-06
-5.76234e-06
-5.01539e-06
-4.79707e-06
-4.83786e-06
-5.00978e-06
-3.74251e-06
-3.30709e-06
-3.08244e-06
-2.11096e-06
-1.77781e-06
-1.29284e-06
-7.07308e-07
)
;

boundaryField
{
    inlet
    {
        type            fixedValue;
        value           uniform 0;
    }
    outlet
    {
        type            calculated;
        value           nonuniform List<scalar> 10(5.92709e-05 4.94254e-05 4.44742e-05 4.82183e-05 6.69358e-05 4.97983e-05 5.48566e-05 5.14261e-05 5.34483e-05 3.88803e-05);
    }
    walls
    {
        type            fixedValue;
        value           uniform 0;
    }
}


// ************************************************************************* //
