/*--------------------------------*- C++ -*----------------------------------*\
| =========                 |                                                 |
| \\      /  F ield         | foam-extend: Open Source CFD                    |
|  \\    /   O peration     | Version:     5.0                                |
|   \\  /    A nd           | Web:         http://www.foam-extend.org         |
|    \\/     M anipulation  |                                                 |
\*---------------------------------------------------------------------------*/
FoamFile
{
    version     2.0;
    format      ascii;
    class       surfaceScalarField;
    location    "8000";
    object      phi.gas;
}
// * * * * * * * * * * * * * * * * * * * * * * * * * * * * * * * * * * * * * //

dimensions      [0 3 -1 0 0 0 0];

internalField   nonuniform List<scalar> 
1890
(
0
0
0
0
0
0
0
0
0
0
0
0
0
0
0
0
0
0
0
0
0
0
0
0
0
0
0
0
0
0
0
0
0
0
0
0
0
0
0
0
0
0
0
0
0
0
0
0
0
0
0
0
0
0
0
0
0
0
0
0
0
0
0
0
0
0
0
0
0
0
0
0
0
0
0
0
1.51538e-28
-5.36303e-30
1.59202e-13
-2.74263e-13
-4.26509e-08
-4.36662e-10
-4.00985e-06
-1.09557e-08
-2.89049e-05
-2.34742e-06
-5.18271e-05
-6.96896e-06
-5.57154e-05
-3.89667e-06
-5.35725e-05
-2.00723e-06
-6.06876e-05
-7.42362e-07
-6.94214e-05
-3.17821e-07
-5.69818e-05
9.32685e-09
-4.88905e-05
1.62076e-07
-5.4163e-05
2.35771e-07
-5.41468e-05
3.24614e-07
-5.21192e-05
3.13155e-07
-6.42212e-05
2.47172e-07
-6.80522e-05
2.92422e-07
-6.64012e-05
3.84535e-07
-5.79637e-05
4.53575e-07
-4.84349e-05
3.55422e-07
-4.76368e-05
3.30092e-07
-4.99099e-05
3.26342e-07
-5.35707e-05
4.54417e-07
-5.50046e-05
4.2217e-07
-5.38532e-05
3.50546e-07
-6.28475e-05
3.71084e-07
-5.9524e-05
5.34124e-07
-5.18695e-05
3.29294e-07
-5.70058e-05
4.76901e-07
-6.50275e-05
3.54728e-07
-7.54951e-05
4.5294e-07
-6.49462e-05
3.6313e-07
-6.52082e-05
4.43708e-07
-6.69092e-05
4.65142e-07
-5.58965e-05
4.92571e-07
-5.22564e-05
4.72273e-07
-5.01164e-05
5.34855e-07
-5.36056e-05
3.8905e-07
-5.47404e-05
3.92022e-07
-5.61215e-05
4.03823e-07
-5.87773e-05
4.0386e-07
-5.46578e-05
4.13918e-07
-5.73043e-05
4.33748e-07
-6.89917e-05
5.0648e-07
-6.3074e-05
3.51927e-07
-5.56069e-05
4.62716e-07
-5.82306e-05
4.92323e-07
-5.80699e-05
4.36739e-07
-5.78308e-05
3.36107e-07
-5.75444e-05
3.10614e-07
-5.45592e-05
4.40436e-07
-5.18806e-05
4.29808e-07
-4.93626e-05
4.52098e-07
-5.13978e-05
5.15512e-07
-6.22785e-05
3.59217e-07
-5.98609e-05
1.90894e-07
-5.49663e-05
2.87872e-07
-5.05826e-05
4.352e-07
-4.90518e-05
4.16965e-07
-5.19082e-05
5.02699e-07
-5.36426e-05
1.96801e-07
3.74937e-07
0
0
0
0
0
0
0
0
0
0
0
0
0
0
0
0
0
0
0
0
0
0
0
0
0
0
0
0
0
0
0
0
0
0
0
0
0
0
0
0
0
0
0
0
0
0
0
0
0
0
0
0
0
0
0
0
0
0
0
0
0
0
0
0
0
0
0
0
0
0
0
0
0
0
3.86086e-22
0
-2.98882e-10
-4.88762e-21
-4.64096e-07
-8.32881e-12
-1.22852e-05
4.29778e-09
-4.02664e-05
-8.66395e-11
-6.26558e-05
-2.62129e-06
-6.4204e-05
-3.44429e-06
-7.21046e-05
-2.30613e-06
-7.21536e-05
-1.82746e-06
-7.43114e-05
-9.65918e-07
-7.5288e-05
-6.988e-07
-6.94849e-05
-2.40758e-07
-6.91514e-05
-4.84542e-08
-7.282e-05
1.98878e-07
-7.89805e-05
2.74336e-07
-6.53015e-05
2.45799e-07
-5.83337e-05
2.75382e-07
-7.0584e-05
3.22951e-07
-8.61956e-05
3.39912e-07
-7.61454e-05
3.76915e-07
-6.20036e-05
4.57795e-07
-5.67482e-05
4.74012e-07
-6.67203e-05
4.35184e-07
-7.8153e-05
5.907e-07
-6.4702e-05
4.5458e-07
-6.03241e-05
4.83256e-07
-7.36373e-05
5.06294e-07
-6.76804e-05
5.58919e-07
-6.77917e-05
3.99566e-07
-6.91378e-05
4.68855e-07
-6.5756e-05
4.84987e-07
-6.7146e-05
5.45535e-07
-7.07859e-05
4.57953e-07
-8.13437e-05
3.92849e-07
-8.11074e-05
3.7458e-07
-8.07018e-05
4.11084e-07
-8.03823e-05
3.7336e-07
-6.55838e-05
5.36595e-07
-5.32473e-05
5.55144e-07
-5.54087e-05
5.57598e-07
-5.77054e-05
6.36814e-07
-5.88275e-05
5.07533e-07
-6.29825e-05
6.23786e-07
-7.36945e-05
4.89272e-07
-6.72348e-05
5.61485e-07
-6.52845e-05
3.4769e-07
-7.44983e-05
4.07098e-07
-6.78982e-05
5.64187e-07
-5.65112e-05
4.99372e-07
-5.04418e-05
5.95552e-07
-5.87236e-05
4.66512e-07
-6.61463e-05
4.28601e-07
-6.21741e-05
4.67739e-07
-6.88939e-05
5.22588e-07
-6.7987e-05
3.97092e-07
-5.45131e-05
3.54365e-07
-5.40705e-05
3.32204e-07
-6.58306e-05
2.49945e-07
-6.28631e-05
2.21849e-07
-6.21382e-05
4.93379e-07
-5.46822e-05
4.52207e-07
-5.2613e-05
2.87198e-07
2.92623e-07
0
0
0
0
0
0
0
0
0
0
0
0
0
0
0
0
0
0
0
0
0
0
0
0
0
0
0
0
0
0
0
0
0
0
0
0
0
0
0
0
0
0
0
0
0
0
0
0
0
0
0
0
0
0
0
0
0
0
0
0
0
0
0
0
0
0
0
0
0
0
0
0
0
0
4.62292e-16
-9.85781e-45
-1.02004e-08
-7.06071e-16
-2.09141e-06
1.54877e-11
-2.04115e-05
1.70439e-08
-6.32975e-05
-1.00623e-06
-7.69829e-05
-3.18714e-06
-7.23413e-05
-3.42518e-06
-6.74872e-05
-2.14724e-06
-6.30947e-05
-1.56261e-06
-6.36993e-05
-7.99817e-07
-7.5817e-05
-6.06638e-07
-6.77704e-05
-3.76081e-07
-7.01026e-05
1.24777e-09
-8.74371e-05
7.92785e-08
-7.12066e-05
1.78558e-07
-6.1666e-05
2.99505e-07
-6.45877e-05
3.56647e-07
-6.77265e-05
4.37682e-07
-6.7665e-05
3.16427e-07
-7.11676e-05
3.43785e-07
-7.29083e-05
4.57101e-07
-6.56811e-05
5.29795e-07
-7.08769e-05
5.57096e-07
-7.24558e-05
4.86712e-07
-6.87166e-05
3.93243e-07
-7.41467e-05
4.33987e-07
-7.39301e-05
4.29604e-07
-6.32182e-05
5.53615e-07
-5.77296e-05
5.72226e-07
-6.62502e-05
4.87989e-07
-7.76383e-05
5.78353e-07
-7.96454e-05
3.93441e-07
-6.71264e-05
3.99421e-07
-6.08199e-05
4.31624e-07
-6.20659e-05
3.63839e-07
-5.77799e-05
5.05293e-07
-6.03658e-05
4.01819e-07
-6.97862e-05
4.79445e-07
-6.94275e-05
5.94666e-07
-7.30437e-05
5.27679e-07
-6.86066e-05
5.81814e-07
-7.02495e-05
4.49041e-07
-7.16235e-05
5.06779e-07
-6.9329e-05
3.85873e-07
-6.19117e-05
3.88029e-07
-5.36519e-05
3.73577e-07
-6.28783e-05
3.58694e-07
-6.40078e-05
5.5964e-07
-6.3658e-05
4.47804e-07
-5.9873e-05
5.95192e-07
-5.06422e-05
5.48986e-07
-5.13918e-05
5.09373e-07
-5.71855e-05
5.88064e-07
-5.52518e-05
5.41533e-07
-5.12296e-05
5.24119e-07
-5.30802e-05
4.57009e-07
-5.00891e-05
3.46821e-07
-4.65038e-05
4.18851e-07
-5.52749e-05
4.59302e-07
-6.78006e-05
4.52275e-07
-5.33186e-05
2.56775e-07
-5.13059e-05
4.59497e-07
2.48088e-07
0
0
0
0
0
0
0
0
0
0
0
0
0
0
0
0
0
0
0
0
0
0
0
0
0
0
0
0
0
0
0
0
0
0
0
0
0
0
0
0
0
0
0
0
0
0
0
0
0
0
0
0
0
0
0
0
0
0
0
0
0
0
0
0
0
0
0
0
0
0
0
0
1.03175e-32
0
-2.65673e-13
-1.82911e-32
-7.15472e-08
-9.79895e-14
-3.94069e-06
4.36986e-10
-3.26332e-05
-6.88716e-09
-6.75004e-05
-1.38056e-06
-7.31694e-05
-2.31157e-06
-7.09672e-05
-2.41869e-06
-7.83838e-05
-1.74597e-06
-7.11775e-05
-1.63632e-06
-6.39353e-05
-6.98487e-07
-7.20685e-05
-5.08731e-07
-8.03533e-05
-3.39737e-07
-8.24444e-05
-1.50043e-07
-7.55046e-05
2.14294e-08
-7.55763e-05
2.03696e-07
-7.53188e-05
2.05918e-07
-7.74655e-05
4.02159e-07
-6.9296e-05
4.95388e-07
-6.02001e-05
3.84667e-07
-6.60275e-05
4.0604e-07
-7.29982e-05
4.7415e-07
-7.92867e-05
5.51436e-07
-7.25858e-05
5.18067e-07
-5.96962e-05
5.38825e-07
-5.84091e-05
5.26905e-07
-5.9573e-05
4.58488e-07
-6.70019e-05
5.81329e-07
-8.34023e-05
5.26609e-07
-7.58807e-05
4.9629e-07
-7.36785e-05
4.97039e-07
-6.77151e-05
6.23574e-07
-6.00222e-05
4.47076e-07
-6.75055e-05
3.8472e-07
-6.23912e-05
4.42068e-07
-6.38825e-05
4.41e-07
-6.35091e-05
6.24086e-07
-5.78167e-05
5.91311e-07
-6.64292e-05
5.22967e-07
-6.61004e-05
7.00292e-07
-6.59251e-05
6.72541e-07
-6.38934e-05
4.90204e-07
-6.37224e-05
6.11006e-07
-6.49346e-05
4.37892e-07
-6.00417e-05
4.1699e-07
-5.83962e-05
5.08768e-07
-5.55424e-05
5.86937e-07
-6.54972e-05
4.68518e-07
-7.04774e-05
6.14182e-07
-6.82039e-05
4.90646e-07
-7.37279e-05
5.08236e-07
-6.69658e-05
4.3653e-07
-6.83136e-05
5.13073e-07
-6.95557e-05
5.26152e-07
-6.69975e-05
4.92192e-07
-6.44186e-05
4.6921e-07
-5.33516e-05
4.28891e-07
-5.05402e-05
4.70158e-07
-5.61196e-05
6.08772e-07
-6.331e-05
6.6018e-07
-6.23371e-05
4.28902e-07
-6.13982e-05
1.66289e-07
-6.16192e-05
1.55423e-07
1.0971e-07
0
0
0
0
0
0
0
0
0
0
0
0
0
0
0
0
0
0
0
0
0
0
0
0
0
0
0
0
0
0
0
0
0
0
0
0
0
0
0
0
0
0
0
0
0
0
0
0
0
0
0
0
0
0
0
0
0
0
0
0
0
0
0
0
0
0
0
0
0
0
0
0
6.70985e-24
-1.32998e-35
-1.15043e-10
-2.88887e-14
-2.15105e-07
-1.20607e-10
-1.5564e-05
-9.66483e-09
-4.67804e-05
-1.96031e-06
-6.42853e-05
-5.21913e-06
-6.57973e-05
-3.78746e-06
-6.46142e-05
-2.3542e-06
-7.25966e-05
-1.72082e-06
-7.59339e-05
-1.46317e-06
-6.37244e-05
-8.62952e-07
-6.00396e-05
-3.70735e-07
-6.29589e-05
-1.58521e-07
-6.61063e-05
-3.08758e-09
-7.53496e-05
1.03438e-07
-6.93083e-05
2.30658e-07
-7.14471e-05
2.25542e-07
-8.99529e-05
2.78857e-07
-7.47883e-05
3.85042e-07
-6.41933e-05
4.81917e-07
-6.73544e-05
4.83583e-07
-7.4697e-05
4.85192e-07
-7.24987e-05
6.09544e-07
-7.05603e-05
4.45147e-07
-7.43029e-05
6.31247e-07
-6.50511e-05
5.22436e-07
-7.02309e-05
5.29109e-07
-7.57669e-05
4.87032e-07
-6.3106e-05
5.44539e-07
-6.30456e-05
4.84366e-07
-7.33519e-05
4.80702e-07
-7.30691e-05
6.65186e-07
-5.96562e-05
4.45072e-07
-5.70045e-05
4.59103e-07
-6.08212e-05
5.85109e-07
-7.04466e-05
4.66131e-07
-8.09757e-05
4.61244e-07
-6.96507e-05
5.45269e-07
-7.13958e-05
5.06924e-07
-8.50529e-05
5.03215e-07
-6.50276e-05
5.44678e-07
-6.3336e-05
5.11529e-07
-6.28039e-05
5.91372e-07
-5.22261e-05
4.6307e-07
-5.67172e-05
4.71077e-07
-6.5239e-05
5.21109e-07
-5.85868e-05
5.78363e-07
-5.83879e-05
5.98731e-07
-6.0815e-05
6.04568e-07
-5.63158e-05
6.34549e-07
-5.34641e-05
6.07932e-07
-5.43868e-05
5.01237e-07
-5.92418e-05
4.8193e-07
-5.73263e-05
4.96803e-07
-5.42596e-05
6.34074e-07
-5.14784e-05
6.94257e-07
-5.10261e-05
5.72e-07
-5.82231e-05
6.44775e-07
-6.98363e-05
4.60287e-07
-6.88356e-05
5.95876e-07
-5.57702e-05
4.56475e-07
-5.36714e-05
2.43286e-07
-5.83065e-05
8.73543e-08
1.71968e-08
0
0
0
0
0
0
0
0
0
0
0
0
0
0
0
0
0
0
0
0
0
0
0
0
0
0
0
0
0
0
0
0
0
0
0
0
0
0
0
0
0
0
0
0
0
0
0
0
0
0
0
0
0
0
0
0
0
0
0
0
0
0
0
0
0
0
0
0
0
0
6.07291e-26
0
-3.14435e-11
-3.39292e-27
-1.22084e-07
1.7032e-12
-1.10988e-05
4.70083e-09
-4.1631e-05
1.9927e-07
-7.07964e-05
-9.01735e-08
-8.03475e-05
-1.1372e-06
-7.10857e-05
-2.14222e-06
-6.79924e-05
-1.6842e-06
-7.0727e-05
-1.75244e-06
-7.89455e-05
-1.2647e-06
-9.11932e-05
-1.15731e-06
-9.07274e-05
-7.39389e-07
-9.03778e-05
-5.02074e-07
-8.18866e-05
-2.42217e-07
-7.95509e-05
1.02437e-08
-7.10068e-05
1.72634e-07
-6.29194e-05
2.83731e-07
-6.75996e-05
2.41267e-07
-7.71812e-05
3.84786e-07
-7.91534e-05
3.58831e-07
-7.26211e-05
4.21147e-07
-7.89243e-05
3.54124e-07
-7.03066e-05
4.48296e-07
-6.86285e-05
4.42052e-07
-7.00832e-05
6.17673e-07
-6.49881e-05
5.20105e-07
-6.1725e-05
5.29395e-07
-6.17583e-05
4.52685e-07
-6.45311e-05
6.39268e-07
-5.87364e-05
5.73652e-07
-6.9525e-05
6.00724e-07
-6.73475e-05
5.50929e-07
-5.71191e-05
5.18674e-07
-6.89239e-05
5.03579e-07
-6.67245e-05
4.79808e-07
-5.65231e-05
5.97094e-07
-6.17677e-05
5.23305e-07
-6.79247e-05
4.6694e-07
-6.42194e-05
4.21127e-07
-6.24573e-05
4.69165e-07
-6.53998e-05
5.38513e-07
-6.67418e-05
4.5109e-07
-6.00905e-05
5.17194e-07
-5.46756e-05
5.85701e-07
-5.68914e-05
6.38217e-07
-6.22356e-05
6.19148e-07
-6.86684e-05
4.72807e-07
-7.00578e-05
5.82855e-07
-7.16369e-05
4.66936e-07
-7.09738e-05
4.65182e-07
-5.84027e-05
5.07217e-07
-5.06623e-05
6.53694e-07
-5.03277e-05
5.94469e-07
-5.72724e-05
6.2853e-07
-6.63289e-05
5.87872e-07
-5.88741e-05
7.23778e-07
-5.69026e-05
6.35178e-07
-5.33475e-05
4.78451e-07
-5.55824e-05
5.80931e-07
-6.83632e-05
5.27795e-07
-5.38198e-05
1.91605e-07
-4.4327e-05
3.9056e-07
-4.45385e-05
3.34334e-07
5.52217e-07
0
0
0
0
0
0
0
0
0
0
0
0
0
0
0
0
0
0
0
0
0
0
0
0
0
0
0
0
0
0
0
0
0
0
0
0
0
0
0
0
0
0
0
0
0
0
0
0
0
0
0
0
0
0
0
0
0
0
0
0
0
0
0
0
0
0
0
0
0
0
0
0
2.86169e-14
-2.18076e-40
-3.34734e-08
-7.6052e-15
-3.20087e-06
2.57712e-10
-4.15378e-05
4.93423e-09
-6.63046e-05
-1.18459e-06
-6.51546e-05
-2.53885e-06
-5.94101e-05
-1.61564e-06
-6.75629e-05
-1.13677e-06
-6.9587e-05
-1.15983e-06
-6.56375e-05
-7.99631e-07
-6.26104e-05
-6.5045e-07
-6.31005e-05
-4.00575e-07
-6.43623e-05
-2.91373e-07
-7.12341e-05
-9.32137e-08
-8.91498e-05
-4.72164e-08
-9.19021e-05
6.29414e-08
-7.22876e-05
1.24762e-07
-7.0629e-05
2.59337e-07
-7.40936e-05
3.64056e-07
-7.0358e-05
3.40622e-07
-6.50995e-05
3.25343e-07
-6.22574e-05
4.89648e-07
-7.00844e-05
5.18473e-07
-8.01886e-05
4.11479e-07
-8.22633e-05
4.66685e-07
-7.32395e-05
5.45859e-07
-6.59065e-05
4.28521e-07
-7.29778e-05
5.61224e-07
-8.13346e-05
4.62053e-07
-7.8777e-05
5.77538e-07
-7.41034e-05
6.89274e-07
-7.0107e-05
4.92404e-07
-6.97859e-05
4.79728e-07
-6.14728e-05
5.21379e-07
-6.94715e-05
4.77922e-07
-7.94258e-05
5.52034e-07
-6.69544e-05
4.80046e-07
-5.78392e-05
4.25788e-07
-5.9052e-05
5.65961e-07
-6.80125e-05
4.52817e-07
-6.12248e-05
6.39823e-07
-5.70489e-05
5.86804e-07
-6.55213e-05
6.75424e-07
-7.46675e-05
6.30198e-07
-7.63166e-05
4.65187e-07
-6.41794e-05
6.66709e-07
-6.3902e-05
4.25532e-07
-6.50156e-05
4.52625e-07
-5.85602e-05
5.57263e-07
-5.81724e-05
4.42935e-07
-6.38707e-05
5.29642e-07
-6.32397e-05
7.09729e-07
-5.97078e-05
8.01594e-07
-6.06859e-05
8.27436e-07
-6.70835e-05
6.08406e-07
-7.24018e-05
4.61656e-07
-5.72499e-05
5.32485e-07
-5.82523e-05
5.48733e-07
-7.20626e-05
5.24189e-07
-5.65371e-05
5.01048e-07
-5.21017e-05
3.58751e-07
-5.35826e-05
4.04153e-07
-5.55643e-05
5.23511e-07
2.42838e-07
0
0
0
0
0
0
0
0
0
0
0
0
0
0
0
0
0
0
0
0
0
0
0
0
0
0
0
0
0
0
0
0
0
0
0
0
0
0
0
0
0
0
0
0
0
0
0
0
0
0
0
0
0
0
0
0
0
0
0
0
0
0
0
0
0
0
0
0
0
0
9.07585e-30
0
-6.5571e-12
-4.41176e-19
-7.29526e-08
-1.83316e-11
-7.9555e-06
-1.93181e-09
-4.10091e-05
-1.06232e-06
-7.3807e-05
-4.49864e-06
-6.0976e-05
-4.56493e-06
-6.48875e-05
-1.83723e-06
-6.47056e-05
-1.12558e-06
-5.81477e-05
-4.56568e-07
-5.74963e-05
-3.40583e-07
-6.78135e-05
-2.77065e-07
-6.72821e-05
-3.72931e-07
-7.13887e-05
-1.33671e-07
-7.6728e-05
-1.53946e-07
-7.11633e-05
8.8296e-08
-6.75688e-05
1.26066e-07
-6.61499e-05
1.90161e-07
-7.48564e-05
2.19794e-07
-7.2795e-05
3.99049e-07
-6.28259e-05
3.81616e-07
-7.09774e-05
3.11169e-07
-9.17427e-05
5.14265e-07
-7.6174e-05
3.36845e-07
-6.68338e-05
3.04453e-07
-7.39152e-05
3.75509e-07
-6.64549e-05
4.91254e-07
-6.81659e-05
4.3415e-07
-6.77279e-05
4.9368e-07
-6.45566e-05
4.47351e-07
-8.18135e-05
5.59139e-07
-7.68128e-05
6.01588e-07
-6.38748e-05
4.15415e-07
-6.53022e-05
4.87946e-07
-6.83235e-05
4.44274e-07
-6.80819e-05
4.67545e-07
-6.61202e-05
4.70551e-07
-5.85961e-05
4.86003e-07
-6.58102e-05
4.87131e-07
-6.69948e-05
5.8237e-07
-6.86445e-05
4.7219e-07
-8.08089e-05
3.99443e-07
-8.03735e-05
5.29144e-07
-7.98031e-05
5.4676e-07
-6.18935e-05
4.40178e-07
-6.48978e-05
4.06735e-07
-6.42705e-05
5.25911e-07
-5.31619e-05
4.88338e-07
-6.21694e-05
5.76122e-07
-6.16041e-05
5.42431e-07
-5.70362e-05
5.00131e-07
-6.57105e-05
5.0861e-07
-7.52307e-05
5.00578e-07
-7.93981e-05
6.78558e-07
-6.93486e-05
6.85975e-07
-5.56415e-05
5.40933e-07
-5.3961e-05
5.1296e-07
-6.03846e-05
5.7675e-07
-6.46815e-05
5.00882e-07
-6.97462e-05
2.36731e-07
-5.78024e-05
1.88619e-07
-4.82904e-05
5.10531e-07
-5.35319e-05
5.95904e-07
-5.23229e-05
4.46469e-07
4.53754e-07
0
0
0
0
0
0
0
0
0
0
0
0
0
0
0
0
0
0
0
0
0
0
0
0
0
0
0
0
0
0
0
0
0
0
0
0
0
0
0
0
0
0
0
0
0
0
0
0
0
0
0
0
0
0
0
0
0
0
0
0
0
0
0
0
0
0
0
0
0
0
7.46924e-15
-1.86285e-32
-1.83969e-08
-1.384e-13
-2.20262e-06
-1.19528e-10
-3.24154e-05
1.88669e-08
-5.64868e-05
-1.31729e-06
-7.1406e-05
-2.07047e-06
-7.44716e-05
-2.17032e-06
-7.5408e-05
-1.37172e-06
-8.41734e-05
-7.89989e-07
-7.92699e-05
-4.73082e-07
-7.74473e-05
-4.32945e-07
-7.12729e-05
-3.87536e-07
-7.54993e-05
-2.97346e-07
-7.68237e-05
-3.41399e-07
-7.72064e-05
-1.25007e-07
-8.35845e-05
9.17698e-10
-7.297e-05
9.73713e-08
-6.46014e-05
1.3164e-07
-7.30906e-05
2.79597e-07
-8.58515e-05
2.09987e-07
-6.73372e-05
2.2038e-07
-7.26277e-05
3.05293e-07
-7.60965e-05
3.03837e-07
-6.12042e-05
2.09219e-07
-6.11189e-05
2.43971e-07
-7.01674e-05
4.19003e-07
-7.55687e-05
3.63288e-07
-7.3302e-05
2.50577e-07
-7.11321e-05
2.29829e-07
-7.47458e-05
3.58301e-07
-8.34286e-05
3.51004e-07
-7.02968e-05
3.45569e-07
-6.51775e-05
3.02537e-07
-6.64243e-05
4.22511e-07
-6.46505e-05
3.30998e-07
-6.7539e-05
3.23207e-07
-6.72356e-05
3.22327e-07
-6.52771e-05
3.53397e-07
-6.66418e-05
4.9432e-07
-6.98215e-05
5.14761e-07
-6.27795e-05
3.03416e-07
-6.56726e-05
2.60432e-07
-7.66551e-05
2.98735e-07
-6.81526e-05
2.75244e-07
-5.85523e-05
2.78624e-07
-6.10522e-05
4.77382e-07
-6.52561e-05
3.74149e-07
-6.82896e-05
3.61641e-07
-6.76945e-05
4.76806e-07
-6.22418e-05
4.64396e-07
-6.01894e-05
3.74268e-07
-5.83295e-05
5.49507e-07
-6.75518e-05
4.69597e-07
-8.00783e-05
3.15027e-07
-6.99236e-05
3.35521e-07
-6.03834e-05
3.6451e-07
-6.30191e-05
5.37366e-07
-6.77122e-05
4.50704e-07
-5.5412e-05
2.78781e-07
-4.90256e-05
4.43932e-07
-6.01711e-05
2.40079e-07
-7.26282e-05
2.01737e-07
-6.10199e-05
2.27248e-07
-5.11845e-05
3.33828e-07
6.31409e-07
0
0
0
0
0
0
0
0
0
0
0
0
0
0
0
0
0
0
0
0
0
0
0
0
0
0
0
0
0
0
0
0
0
0
7.13019e-24
-1.46682e-10
-2.08542e-07
-9.97233e-06
-5.29352e-05
-7.08757e-05
-6.96434e-05
-6.75301e-05
-7.96037e-05
-9.90901e-05
-7.89543e-05
-7.28433e-05
-7.2543e-05
-6.67978e-05
-6.83071e-05
-7.66889e-05
-8.47045e-05
-7.63584e-05
-8.23436e-05
-8.63959e-05
-7.57672e-05
-7.94404e-05
-8.56186e-05
-7.49184e-05
-6.66103e-05
-8.02976e-05
-9.17848e-05
-7.36037e-05
-6.39927e-05
-7.13134e-05
-8.03949e-05
-7.79246e-05
-7.18675e-05
-7.51854e-05
-7.65972e-05
-6.89382e-05
-6.85059e-05
-6.80652e-05
-7.6748e-05
-9.08119e-05
-7.35454e-05
-6.04325e-05
-6.4174e-05
-6.67901e-05
-6.18159e-05
-7.10669e-05
-7.62798e-05
-6.4627e-05
-6.9095e-05
-7.64033e-05
-6.59299e-05
-6.88559e-05
-7.85199e-05
-6.54042e-05
-6.15587e-05
-6.24047e-05
-6.87131e-05
-7.40004e-05
-5.99426e-05
-6.24523e-05
-6.12649e-05
-5.32375e-05
-5.6349e-05
-5.67707e-05
-6.02541e-05
)
;

boundaryField
{
    inlet
    {
        type            fixedValue;
        value           nonuniform List<scalar> 10(-5e-05 -5e-05 -5e-05 -5e-05 -5e-05 -5e-05 -5e-05 -5e-05 -5e-05 -5e-05);
    }
    outlet
    {
        type            calculated;
        value           uniform 0;
    }
    walls
    {
        type            fixedValue;
        value           uniform 0;
    }
}


// ************************************************************************* //
