/*--------------------------------*- C++ -*----------------------------------*\
| =========                 |                                                 |
| \\      /  F ield         | foam-extend: Open Source CFD                    |
|  \\    /   O peration     | Version:     5.0                                |
|   \\  /    A nd           | Web:         http://www.foam-extend.org         |
|    \\/     M anipulation  |                                                 |
\*---------------------------------------------------------------------------*/
FoamFile
{
    version     2.0;
    format      ascii;
    class       volScalarField;
    location    "8000";
    object      S.gas;
}
// * * * * * * * * * * * * * * * * * * * * * * * * * * * * * * * * * * * * * //

dimensions      [0 0 0 0 0 0 0];

internalField   nonuniform List<scalar> 
1000
(
0
0
0
0
0
0
0
0
0
0
0
0
0
0
0
0
0
0
0
0
0
0
0
0
0
0
0
0
0
0
0
0
0
0
0
0
0
0
0
6.7022e-16
1.37825e-08
0.000162097
0.0160562
0.124487
0.266647
0.346554
0.386526
0.413784
0.42733
0.439929
0.454007
0.465952
0.474572
0.484169
0.492286
0.498799
0.505934
0.512479
0.520616
0.52887
0.537048
0.544743
0.552248
0.559798
0.567604
0.573905
0.582299
0.590079
0.597745
0.604549
0.611201
0.619353
0.626172
0.63433
0.64316
0.652432
0.662208
0.671062
0.680925
0.68982
0.699486
0.709689
0.719172
0.72756
0.738528
0.749127
0.760064
0.771351
0.782942
0.794831
0.808125
0.821996
0.837629
0.851944
0.864476
0.880759
0.896566
0.917948
0.937916
0.962893
0
0
0
0
0
0
0
0
0
0
0
0
0
0
0
0
0
0
0
0
0
0
0
0
0
0
0
0
0
0
0
0
0
0
0
0
0
0
7.26124e-13
1.37567e-06
0.00178096
0.0504495
0.211963
0.379751
0.455452
0.498772
0.518177
0.535455
0.544644
0.554185
0.562119
0.569706
0.575802
0.581664
0.589243
0.59594
0.600941
0.605623
0.611628
0.618387
0.625389
0.630317
0.635736
0.642438
0.648688
0.653371
0.660526
0.665305
0.672234
0.67757
0.684367
0.689358
0.694904
0.69997
0.705693
0.710846
0.71884
0.727025
0.734815
0.742821
0.750728
0.758218
0.764374
0.773306
0.780239
0.787692
0.796222
0.807257
0.819005
0.828006
0.838346
0.84919
0.858357
0.870122
0.88524
0.898947
0.910466
0.926862
0.940343
0.967523
0
0
0
0
0
0
0
0
0
0
0
0
0
0
0
0
0
0
0
0
0
0
0
0
0
0
0
0
0
0
0
0
0
0
0
0
0
0
6.29544e-10
3.73745e-05
0.00808189
0.0990931
0.293104
0.405083
0.452887
0.490908
0.515475
0.536028
0.548888
0.557307
0.568678
0.574761
0.580822
0.588668
0.596005
0.602333
0.608458
0.614407
0.619662
0.625137
0.631418
0.635979
0.641917
0.646992
0.652039
0.657052
0.663825
0.670123
0.675347
0.680037
0.685018
0.69152
0.697854
0.704264
0.711793
0.717876
0.723751
0.730066
0.735441
0.742647
0.747835
0.754924
0.760645
0.769576
0.778008
0.784573
0.793067
0.80004
0.810003
0.820987
0.831564
0.841141
0.853493
0.866185
0.879186
0.895222
0.912978
0.925826
0.939803
0.965949
0
0
0
0
0
0
0
0
0
0
0
0
0
0
0
0
0
0
0
0
0
0
0
0
0
0
0
0
0
0
0
0
0
0
0
0
0
4.91986e-17
2.57183e-08
0.000280979
0.0215452
0.168795
0.354139
0.436651
0.478794
0.50838
0.523268
0.541908
0.554014
0.563
0.570041
0.576888
0.583996
0.589984
0.596316
0.601428
0.60857
0.615165
0.620722
0.62591
0.630482
0.636391
0.643131
0.64933
0.655809
0.6607
0.665045
0.670762
0.675375
0.682045
0.68825
0.693634
0.700854
0.706088
0.713577
0.720349
0.726302
0.733407
0.739754
0.747592
0.754314
0.76227
0.770444
0.779346
0.78908
0.795852
0.805019
0.812758
0.821233
0.830928
0.83951
0.849468
0.859322
0.870772
0.886189
0.90086
0.915401
0.928865
0.946915
0.964386
0
0
0
0
0
0
0
0
0
0
0
0
0
0
0
0
0
0
0
0
0
0
0
0
0
0
0
0
0
0
0
0
0
0
0
0
0
1.22507e-13
6.02319e-07
0.00126659
0.0536867
0.20445
0.351263
0.430234
0.474193
0.502992
0.517732
0.532409
0.547152
0.558527
0.567853
0.575837
0.581731
0.589835
0.594802
0.599583
0.606118
0.612485
0.618124
0.623087
0.628895
0.634063
0.639221
0.645773
0.650059
0.655716
0.661989
0.667735
0.672334
0.678161
0.685209
0.691765
0.69818
0.703129
0.708087
0.714682
0.719465
0.724253
0.732119
0.737453
0.745701
0.754214
0.761483
0.768148
0.777374
0.78454
0.79365
0.802784
0.813801
0.823461
0.833499
0.844519
0.856827
0.870776
0.88526
0.897546
0.908919
0.922837
0.943599
0.963709
0
0
0
0
0
0
0
0
0
0
0
0
0
0
0
0
0
0
0
0
0
0
0
0
0
0
0
0
0
0
0
0
0
0
0
0
1.23937e-14
1.74146e-07
0.00070835
0.0413371
0.192711
0.359403
0.438187
0.476505
0.510474
0.528366
0.542206
0.550167
0.557108
0.563343
0.569158
0.575811
0.581364
0.588814
0.595585
0.601438
0.606218
0.611482
0.616945
0.621091
0.62753
0.631854
0.637899
0.643066
0.649663
0.654827
0.660896
0.667309
0.671467
0.678283
0.68463
0.689242
0.695984
0.702903
0.70873
0.714651
0.721289
0.727748
0.734047
0.740409
0.748353
0.756577
0.764362
0.77166
0.778335
0.785602
0.79219
0.799762
0.809877
0.821057
0.832367
0.841626
0.850651
0.86319
0.874075
0.889746
0.900897
0.912877
0.933013
0.95727
0
0
0
0
0
0
0
0
0
0
0
0
0
0
0
0
0
0
0
0
0
0
0
0
0
0
0
0
0
0
0
0
0
0
0
0
0
5.35691e-09
0.000124992
0.0145834
0.137382
0.288069
0.391756
0.4584
0.503069
0.522473
0.541715
0.554688
0.567348
0.575988
0.584742
0.590238
0.595121
0.599841
0.606833
0.61151
0.61755
0.622638
0.629338
0.634901
0.640224
0.644405
0.649406
0.6547
0.660834
0.665065
0.670113
0.674619
0.680303
0.685488
0.691282
0.698062
0.702558
0.707989
0.714411
0.721896
0.728321
0.734172
0.74224
0.749566
0.756108
0.762095
0.768488
0.777062
0.783876
0.792497
0.801525
0.810925
0.818884
0.829132
0.838964
0.849945
0.858713
0.868933
0.883636
0.894754
0.905714
0.925316
0.941926
0.966513
0
0
0
0
0
0
0
0
0
0
0
0
0
0
0
0
0
0
0
0
0
0
0
0
0
0
0
0
0
0
0
0
0
0
0
0
1.05589e-15
5.77819e-08
0.000416156
0.0313338
0.175208
0.335703
0.403753
0.46839
0.496296
0.523595
0.544107
0.559421
0.567896
0.578763
0.584541
0.592257
0.598345
0.605828
0.611647
0.616913
0.622692
0.629567
0.633669
0.637725
0.643455
0.648838
0.653335
0.659858
0.664116
0.670691
0.675597
0.679667
0.685253
0.691483
0.696923
0.702727
0.708298
0.714603
0.722033
0.727027
0.734434
0.739324
0.744937
0.749943
0.755755
0.764325
0.7697
0.778761
0.787807
0.794738
0.804537
0.813451
0.821287
0.828362
0.835667
0.845442
0.858088
0.869831
0.881163
0.892586
0.903005
0.920596
0.939868
0.95827
0
0
0
0
0
0
0
0
0
0
0
0
0
0
0
0
0
0
0
0
0
0
0
0
0
0
0
0
0
0
0
0
0
0
0
0
2.40664e-09
8.4593e-05
0.0132701
0.14691
0.326921
0.449119
0.494356
0.525334
0.543561
0.55601
0.5693
0.578367
0.589537
0.595332
0.603873
0.60885
0.615125
0.621431
0.628841
0.63285
0.637734
0.644469
0.648128
0.653956
0.660349
0.666051
0.670521
0.675316
0.680065
0.685125
0.68926
0.693076
0.699141
0.703996
0.709888
0.715221
0.720626
0.726125
0.732065
0.737454
0.743015
0.750098
0.755175
0.760346
0.767156
0.774969
0.781507
0.788715
0.794861
0.80252
0.81057
0.819398
0.828772
0.835619
0.842662
0.852218
0.862915
0.872528
0.882739
0.898586
0.914916
0.927009
0.939988
0.96028
0
0
0
0
0
0
0
0
0
0
0
0
0
0
0
0
0
0
0
0
0
0
0
0
0
0
0
0
0
0
0
0
0
0
0
1.24851e-13
6.03264e-07
0.00113795
0.0499205
0.234068
0.388537
0.476268
0.532936
0.570989
0.587665
0.600287
0.620119
0.631883
0.645714
0.656715
0.666229
0.671988
0.677818
0.684669
0.688465
0.693673
0.699063
0.703079
0.706853
0.712465
0.717983
0.720405
0.723827
0.72903
0.73457
0.737925
0.741609
0.745277
0.750125
0.75315
0.75768
0.762248
0.766891
0.771652
0.774604
0.777157
0.782873
0.788766
0.793572
0.798949
0.805448
0.80874
0.814302
0.820578
0.825244
0.830106
0.83769
0.842102
0.847714
0.855761
0.863201
0.871806
0.877933
0.885694
0.897576
0.905468
0.919666
0.933989
0.949623
0.969115
)
;

boundaryField
{
    inlet
    {
        type            calculated;
        value           uniform 1;
    }
    outlet
    {
        type            calculated;
        value           uniform 0;
    }
    walls
    {
        type            calculated;
        value           nonuniform List<scalar> 
2200
(
0
0
0
0
0
0
0
0
0
0
0
0
0
0
0
0
0
0
0
0
0
0
0
0
0
0
0
0
0
0
0
0
0
0
0
0
0
0
0
6.7022e-16
1.37825e-08
0.000162097
0.0160562
0.124487
0.266647
0.346554
0.386526
0.413784
0.42733
0.439929
0.454007
0.465952
0.474572
0.484169
0.492286
0.498799
0.505934
0.512479
0.520616
0.52887
0.537048
0.544743
0.552248
0.559798
0.567604
0.573905
0.582299
0.590079
0.597745
0.604549
0.611201
0.619353
0.626172
0.63433
0.64316
0.652432
0.662208
0.671062
0.680925
0.68982
0.699486
0.709689
0.719172
0.72756
0.738528
0.749127
0.760064
0.771351
0.782942
0.794831
0.808125
0.821996
0.837629
0.851944
0.864476
0.880759
0.896566
0.917948
0.937916
0.962893
0
0
0
0
0
0
0
0
0
0
0
0
0
0
0
0
0
0
0
0
0
0
0
0
0
0
0
0
0
0
0
0
0
0
0
0
0
0
7.26124e-13
1.37567e-06
0.00178096
0.0504495
0.211963
0.379751
0.455452
0.498772
0.518177
0.535455
0.544644
0.554185
0.562119
0.569706
0.575802
0.581664
0.589243
0.59594
0.600941
0.605623
0.611628
0.618387
0.625389
0.630317
0.635736
0.642438
0.648688
0.653371
0.660526
0.665305
0.672234
0.67757
0.684367
0.689358
0.694904
0.69997
0.705693
0.710846
0.71884
0.727025
0.734815
0.742821
0.750728
0.758218
0.764374
0.773306
0.780239
0.787692
0.796222
0.807257
0.819005
0.828006
0.838346
0.84919
0.858357
0.870122
0.88524
0.898947
0.910466
0.926862
0.940343
0.967523
0
0
0
0
0
0
0
0
0
0
0
0
0
0
0
0
0
0
0
0
0
0
0
0
0
0
0
0
0
0
0
0
0
0
0
0
0
0
6.29544e-10
3.73745e-05
0.00808189
0.0990931
0.293104
0.405083
0.452887
0.490908
0.515475
0.536028
0.548888
0.557307
0.568678
0.574761
0.580822
0.588668
0.596005
0.602333
0.608458
0.614407
0.619662
0.625137
0.631418
0.635979
0.641917
0.646992
0.652039
0.657052
0.663825
0.670123
0.675347
0.680037
0.685018
0.69152
0.697854
0.704264
0.711793
0.717876
0.723751
0.730066
0.735441
0.742647
0.747835
0.754924
0.760645
0.769576
0.778008
0.784573
0.793067
0.80004
0.810003
0.820987
0.831564
0.841141
0.853493
0.866185
0.879186
0.895222
0.912978
0.925826
0.939803
0.965949
0
0
0
0
0
0
0
0
0
0
0
0
0
0
0
0
0
0
0
0
0
0
0
0
0
0
0
0
0
0
0
0
0
0
0
0
0
4.91986e-17
2.57183e-08
0.000280979
0.0215452
0.168795
0.354139
0.436651
0.478794
0.50838
0.523268
0.541908
0.554014
0.563
0.570041
0.576888
0.583996
0.589984
0.596316
0.601428
0.60857
0.615165
0.620722
0.62591
0.630482
0.636391
0.643131
0.64933
0.655809
0.6607
0.665045
0.670762
0.675375
0.682045
0.68825
0.693634
0.700854
0.706088
0.713577
0.720349
0.726302
0.733407
0.739754
0.747592
0.754314
0.76227
0.770444
0.779346
0.78908
0.795852
0.805019
0.812758
0.821233
0.830928
0.83951
0.849468
0.859322
0.870772
0.886189
0.90086
0.915401
0.928865
0.946915
0.964386
0
0
0
0
0
0
0
0
0
0
0
0
0
0
0
0
0
0
0
0
0
0
0
0
0
0
0
0
0
0
0
0
0
0
0
0
0
1.22507e-13
6.02319e-07
0.00126659
0.0536867
0.20445
0.351263
0.430234
0.474193
0.502992
0.517732
0.532409
0.547152
0.558527
0.567853
0.575837
0.581731
0.589835
0.594802
0.599583
0.606118
0.612485
0.618124
0.623087
0.628895
0.634063
0.639221
0.645773
0.650059
0.655716
0.661989
0.667735
0.672334
0.678161
0.685209
0.691765
0.69818
0.703129
0.708087
0.714682
0.719465
0.724253
0.732119
0.737453
0.745701
0.754214
0.761483
0.768148
0.777374
0.78454
0.79365
0.802784
0.813801
0.823461
0.833499
0.844519
0.856827
0.870776
0.88526
0.897546
0.908919
0.922837
0.943599
0.963709
0
0
0
0
0
0
0
0
0
0
0
0
0
0
0
0
0
0
0
0
0
0
0
0
0
0
0
0
0
0
0
0
0
0
0
0
1.23937e-14
1.74146e-07
0.00070835
0.0413371
0.192711
0.359403
0.438187
0.476505
0.510474
0.528366
0.542206
0.550167
0.557108
0.563343
0.569158
0.575811
0.581364
0.588814
0.595585
0.601438
0.606218
0.611482
0.616945
0.621091
0.62753
0.631854
0.637899
0.643066
0.649663
0.654827
0.660896
0.667309
0.671467
0.678283
0.68463
0.689242
0.695984
0.702903
0.70873
0.714651
0.721289
0.727748
0.734047
0.740409
0.748353
0.756577
0.764362
0.77166
0.778335
0.785602
0.79219
0.799762
0.809877
0.821057
0.832367
0.841626
0.850651
0.86319
0.874075
0.889746
0.900897
0.912877
0.933013
0.95727
0
0
0
0
0
0
0
0
0
0
0
0
0
0
0
0
0
0
0
0
0
0
0
0
0
0
0
0
0
0
0
0
0
0
0
0
0
5.35691e-09
0.000124992
0.0145834
0.137382
0.288069
0.391756
0.4584
0.503069
0.522473
0.541715
0.554688
0.567348
0.575988
0.584742
0.590238
0.595121
0.599841
0.606833
0.61151
0.61755
0.622638
0.629338
0.634901
0.640224
0.644405
0.649406
0.6547
0.660834
0.665065
0.670113
0.674619
0.680303
0.685488
0.691282
0.698062
0.702558
0.707989
0.714411
0.721896
0.728321
0.734172
0.74224
0.749566
0.756108
0.762095
0.768488
0.777062
0.783876
0.792497
0.801525
0.810925
0.818884
0.829132
0.838964
0.849945
0.858713
0.868933
0.883636
0.894754
0.905714
0.925316
0.941926
0.966513
0
0
0
0
0
0
0
0
0
0
0
0
0
0
0
0
0
0
0
0
0
0
0
0
0
0
0
0
0
0
0
0
0
0
0
0
1.05589e-15
5.77819e-08
0.000416156
0.0313338
0.175208
0.335703
0.403753
0.46839
0.496296
0.523595
0.544107
0.559421
0.567896
0.578763
0.584541
0.592257
0.598345
0.605828
0.611647
0.616913
0.622692
0.629567
0.633669
0.637725
0.643455
0.648838
0.653335
0.659858
0.664116
0.670691
0.675597
0.679667
0.685253
0.691483
0.696923
0.702727
0.708298
0.714603
0.722033
0.727027
0.734434
0.739324
0.744937
0.749943
0.755755
0.764325
0.7697
0.778761
0.787807
0.794738
0.804537
0.813451
0.821287
0.828362
0.835667
0.845442
0.858088
0.869831
0.881163
0.892586
0.903005
0.920596
0.939868
0.95827
0
0
0
0
0
0
0
0
0
0
0
0
0
0
0
0
0
0
0
0
0
0
0
0
0
0
0
0
0
0
0
0
0
0
0
0
2.40664e-09
8.4593e-05
0.0132701
0.14691
0.326921
0.449119
0.494356
0.525334
0.543561
0.55601
0.5693
0.578367
0.589537
0.595332
0.603873
0.60885
0.615125
0.621431
0.628841
0.63285
0.637734
0.644469
0.648128
0.653956
0.660349
0.666051
0.670521
0.675316
0.680065
0.685125
0.68926
0.693076
0.699141
0.703996
0.709888
0.715221
0.720626
0.726125
0.732065
0.737454
0.743015
0.750098
0.755175
0.760346
0.767156
0.774969
0.781507
0.788715
0.794861
0.80252
0.81057
0.819398
0.828772
0.835619
0.842662
0.852218
0.862915
0.872528
0.882739
0.898586
0.914916
0.927009
0.939988
0.96028
0
0
0
0
0
0
0
0
0
0
0
0
0
0
0
0
0
0
0
0
0
0
0
0
0
0
0
0
0
0
0
0
0
0
0
1.24851e-13
6.03264e-07
0.00113795
0.0499205
0.234068
0.388537
0.476268
0.532936
0.570989
0.587665
0.600287
0.620119
0.631883
0.645714
0.656715
0.666229
0.671988
0.677818
0.684669
0.688465
0.693673
0.699063
0.703079
0.706853
0.712465
0.717983
0.720405
0.723827
0.72903
0.73457
0.737925
0.741609
0.745277
0.750125
0.75315
0.75768
0.762248
0.766891
0.771652
0.774604
0.777157
0.782873
0.788766
0.793572
0.798949
0.805448
0.80874
0.814302
0.820578
0.825244
0.830106
0.83769
0.842102
0.847714
0.855761
0.863201
0.871806
0.877933
0.885694
0.897576
0.905468
0.919666
0.933989
0.949623
0.969115
0
0
0
0
0
0
0
0
0
0
0
0
0
0
0
0
0
0
0
0
0
0
0
0
0
0
0
0
0
0
0
0
0
0
0
0
0
0
0
6.7022e-16
1.37825e-08
0.000162097
0.0160562
0.124487
0.266647
0.346554
0.386526
0.413784
0.42733
0.439929
0.454007
0.465952
0.474572
0.484169
0.492286
0.498799
0.505934
0.512479
0.520616
0.52887
0.537048
0.544743
0.552248
0.559798
0.567604
0.573905
0.582299
0.590079
0.597745
0.604549
0.611201
0.619353
0.626172
0.63433
0.64316
0.652432
0.662208
0.671062
0.680925
0.68982
0.699486
0.709689
0.719172
0.72756
0.738528
0.749127
0.760064
0.771351
0.782942
0.794831
0.808125
0.821996
0.837629
0.851944
0.864476
0.880759
0.896566
0.917948
0.937916
0.962893
0
0
0
0
0
0
0
0
0
0
0
0
0
0
0
0
0
0
0
0
0
0
0
0
0
0
0
0
0
0
0
0
0
0
0
0
0
0
7.26124e-13
1.37567e-06
0.00178096
0.0504495
0.211963
0.379751
0.455452
0.498772
0.518177
0.535455
0.544644
0.554185
0.562119
0.569706
0.575802
0.581664
0.589243
0.59594
0.600941
0.605623
0.611628
0.618387
0.625389
0.630317
0.635736
0.642438
0.648688
0.653371
0.660526
0.665305
0.672234
0.67757
0.684367
0.689358
0.694904
0.69997
0.705693
0.710846
0.71884
0.727025
0.734815
0.742821
0.750728
0.758218
0.764374
0.773306
0.780239
0.787692
0.796222
0.807257
0.819005
0.828006
0.838346
0.84919
0.858357
0.870122
0.88524
0.898947
0.910466
0.926862
0.940343
0.967523
0
0
0
0
0
0
0
0
0
0
0
0
0
0
0
0
0
0
0
0
0
0
0
0
0
0
0
0
0
0
0
0
0
0
0
0
0
0
6.29544e-10
3.73745e-05
0.00808189
0.0990931
0.293104
0.405083
0.452887
0.490908
0.515475
0.536028
0.548888
0.557307
0.568678
0.574761
0.580822
0.588668
0.596005
0.602333
0.608458
0.614407
0.619662
0.625137
0.631418
0.635979
0.641917
0.646992
0.652039
0.657052
0.663825
0.670123
0.675347
0.680037
0.685018
0.69152
0.697854
0.704264
0.711793
0.717876
0.723751
0.730066
0.735441
0.742647
0.747835
0.754924
0.760645
0.769576
0.778008
0.784573
0.793067
0.80004
0.810003
0.820987
0.831564
0.841141
0.853493
0.866185
0.879186
0.895222
0.912978
0.925826
0.939803
0.965949
0
0
0
0
0
0
0
0
0
0
0
0
0
0
0
0
0
0
0
0
0
0
0
0
0
0
0
0
0
0
0
0
0
0
0
0
0
4.91986e-17
2.57183e-08
0.000280979
0.0215452
0.168795
0.354139
0.436651
0.478794
0.50838
0.523268
0.541908
0.554014
0.563
0.570041
0.576888
0.583996
0.589984
0.596316
0.601428
0.60857
0.615165
0.620722
0.62591
0.630482
0.636391
0.643131
0.64933
0.655809
0.6607
0.665045
0.670762
0.675375
0.682045
0.68825
0.693634
0.700854
0.706088
0.713577
0.720349
0.726302
0.733407
0.739754
0.747592
0.754314
0.76227
0.770444
0.779346
0.78908
0.795852
0.805019
0.812758
0.821233
0.830928
0.83951
0.849468
0.859322
0.870772
0.886189
0.90086
0.915401
0.928865
0.946915
0.964386
0
0
0
0
0
0
0
0
0
0
0
0
0
0
0
0
0
0
0
0
0
0
0
0
0
0
0
0
0
0
0
0
0
0
0
0
0
1.22507e-13
6.02319e-07
0.00126659
0.0536867
0.20445
0.351263
0.430234
0.474193
0.502992
0.517732
0.532409
0.547152
0.558527
0.567853
0.575837
0.581731
0.589835
0.594802
0.599583
0.606118
0.612485
0.618124
0.623087
0.628895
0.634063
0.639221
0.645773
0.650059
0.655716
0.661989
0.667735
0.672334
0.678161
0.685209
0.691765
0.69818
0.703129
0.708087
0.714682
0.719465
0.724253
0.732119
0.737453
0.745701
0.754214
0.761483
0.768148
0.777374
0.78454
0.79365
0.802784
0.813801
0.823461
0.833499
0.844519
0.856827
0.870776
0.88526
0.897546
0.908919
0.922837
0.943599
0.963709
0
0
0
0
0
0
0
0
0
0
0
0
0
0
0
0
0
0
0
0
0
0
0
0
0
0
0
0
0
0
0
0
0
0
0
0
1.23937e-14
1.74146e-07
0.00070835
0.0413371
0.192711
0.359403
0.438187
0.476505
0.510474
0.528366
0.542206
0.550167
0.557108
0.563343
0.569158
0.575811
0.581364
0.588814
0.595585
0.601438
0.606218
0.611482
0.616945
0.621091
0.62753
0.631854
0.637899
0.643066
0.649663
0.654827
0.660896
0.667309
0.671467
0.678283
0.68463
0.689242
0.695984
0.702903
0.70873
0.714651
0.721289
0.727748
0.734047
0.740409
0.748353
0.756577
0.764362
0.77166
0.778335
0.785602
0.79219
0.799762
0.809877
0.821057
0.832367
0.841626
0.850651
0.86319
0.874075
0.889746
0.900897
0.912877
0.933013
0.95727
0
0
0
0
0
0
0
0
0
0
0
0
0
0
0
0
0
0
0
0
0
0
0
0
0
0
0
0
0
0
0
0
0
0
0
0
0
5.35691e-09
0.000124992
0.0145834
0.137382
0.288069
0.391756
0.4584
0.503069
0.522473
0.541715
0.554688
0.567348
0.575988
0.584742
0.590238
0.595121
0.599841
0.606833
0.61151
0.61755
0.622638
0.629338
0.634901
0.640224
0.644405
0.649406
0.6547
0.660834
0.665065
0.670113
0.674619
0.680303
0.685488
0.691282
0.698062
0.702558
0.707989
0.714411
0.721896
0.728321
0.734172
0.74224
0.749566
0.756108
0.762095
0.768488
0.777062
0.783876
0.792497
0.801525
0.810925
0.818884
0.829132
0.838964
0.849945
0.858713
0.868933
0.883636
0.894754
0.905714
0.925316
0.941926
0.966513
0
0
0
0
0
0
0
0
0
0
0
0
0
0
0
0
0
0
0
0
0
0
0
0
0
0
0
0
0
0
0
0
0
0
0
0
1.05589e-15
5.77819e-08
0.000416156
0.0313338
0.175208
0.335703
0.403753
0.46839
0.496296
0.523595
0.544107
0.559421
0.567896
0.578763
0.584541
0.592257
0.598345
0.605828
0.611647
0.616913
0.622692
0.629567
0.633669
0.637725
0.643455
0.648838
0.653335
0.659858
0.664116
0.670691
0.675597
0.679667
0.685253
0.691483
0.696923
0.702727
0.708298
0.714603
0.722033
0.727027
0.734434
0.739324
0.744937
0.749943
0.755755
0.764325
0.7697
0.778761
0.787807
0.794738
0.804537
0.813451
0.821287
0.828362
0.835667
0.845442
0.858088
0.869831
0.881163
0.892586
0.903005
0.920596
0.939868
0.95827
0
0
0
0
0
0
0
0
0
0
0
0
0
0
0
0
0
0
0
0
0
0
0
0
0
0
0
0
0
0
0
0
0
0
0
0
2.40664e-09
8.4593e-05
0.0132701
0.14691
0.326921
0.449119
0.494356
0.525334
0.543561
0.55601
0.5693
0.578367
0.589537
0.595332
0.603873
0.60885
0.615125
0.621431
0.628841
0.63285
0.637734
0.644469
0.648128
0.653956
0.660349
0.666051
0.670521
0.675316
0.680065
0.685125
0.68926
0.693076
0.699141
0.703996
0.709888
0.715221
0.720626
0.726125
0.732065
0.737454
0.743015
0.750098
0.755175
0.760346
0.767156
0.774969
0.781507
0.788715
0.794861
0.80252
0.81057
0.819398
0.828772
0.835619
0.842662
0.852218
0.862915
0.872528
0.882739
0.898586
0.914916
0.927009
0.939988
0.96028
0
0
0
0
0
0
0
0
0
0
0
0
0
0
0
0
0
0
0
0
0
0
0
0
0
0
0
0
0
0
0
0
0
0
0
1.24851e-13
6.03264e-07
0.00113795
0.0499205
0.234068
0.388537
0.476268
0.532936
0.570989
0.587665
0.600287
0.620119
0.631883
0.645714
0.656715
0.666229
0.671988
0.677818
0.684669
0.688465
0.693673
0.699063
0.703079
0.706853
0.712465
0.717983
0.720405
0.723827
0.72903
0.73457
0.737925
0.741609
0.745277
0.750125
0.75315
0.75768
0.762248
0.766891
0.771652
0.774604
0.777157
0.782873
0.788766
0.793572
0.798949
0.805448
0.80874
0.814302
0.820578
0.825244
0.830106
0.83769
0.842102
0.847714
0.855761
0.863201
0.871806
0.877933
0.885694
0.897576
0.905468
0.919666
0.933989
0.949623
0.969115
0
0
0
0
0
0
0
0
0
0
0
0
0
0
0
0
0
0
0
0
0
0
0
0
0
0
0
0
0
0
0
0
0
0
0
0
0
0
0
6.7022e-16
1.37825e-08
0.000162097
0.0160562
0.124487
0.266647
0.346554
0.386526
0.413784
0.42733
0.439929
0.454007
0.465952
0.474572
0.484169
0.492286
0.498799
0.505934
0.512479
0.520616
0.52887
0.537048
0.544743
0.552248
0.559798
0.567604
0.573905
0.582299
0.590079
0.597745
0.604549
0.611201
0.619353
0.626172
0.63433
0.64316
0.652432
0.662208
0.671062
0.680925
0.68982
0.699486
0.709689
0.719172
0.72756
0.738528
0.749127
0.760064
0.771351
0.782942
0.794831
0.808125
0.821996
0.837629
0.851944
0.864476
0.880759
0.896566
0.917948
0.937916
0.962893
0
0
0
0
0
0
0
0
0
0
0
0
0
0
0
0
0
0
0
0
0
0
0
0
0
0
0
0
0
0
0
0
0
0
0
1.24851e-13
6.03264e-07
0.00113795
0.0499205
0.234068
0.388537
0.476268
0.532936
0.570989
0.587665
0.600287
0.620119
0.631883
0.645714
0.656715
0.666229
0.671988
0.677818
0.684669
0.688465
0.693673
0.699063
0.703079
0.706853
0.712465
0.717983
0.720405
0.723827
0.72903
0.73457
0.737925
0.741609
0.745277
0.750125
0.75315
0.75768
0.762248
0.766891
0.771652
0.774604
0.777157
0.782873
0.788766
0.793572
0.798949
0.805448
0.80874
0.814302
0.820578
0.825244
0.830106
0.83769
0.842102
0.847714
0.855761
0.863201
0.871806
0.877933
0.885694
0.897576
0.905468
0.919666
0.933989
0.949623
0.969115
)
;
    }
}


// ************************************************************************* //
