/*--------------------------------*- C++ -*----------------------------------*\
| =========                 |                                                 |
| \\      /  F ield         | foam-extend: Open Source CFD                    |
|  \\    /   O peration     | Version:     5.0                                |
|   \\  /    A nd           | Web:         http://www.foam-extend.org         |
|    \\/     M anipulation  |                                                 |
\*---------------------------------------------------------------------------*/
FoamFile
{
    version     2.0;
    format      ascii;
    class       volVectorField;
    location    "8000";
    object      U.gas;
}
// * * * * * * * * * * * * * * * * * * * * * * * * * * * * * * * * * * * * * //

dimensions      [0 1 -1 0 0 0 0];

internalField   nonuniform List<vector> 
1000
(
(0 0 0)
(0 0 0)
(0 0 0)
(0 0 0)
(0 0 0)
(0 0 0)
(0 0 0)
(0 0 0)
(0 0 0)
(0 0 0)
(0 0 0)
(0 0 0)
(0 0 0)
(0 0 0)
(0 0 0)
(0 0 0)
(0 0 0)
(0 0 0)
(0 0 0)
(0 0 0)
(0 0 0)
(0 0 0)
(0 0 0)
(0 0 0)
(0 0 0)
(0 0 0)
(0 0 0)
(0 0 0)
(0 0 0)
(0 0 0)
(0 0 0)
(0 0 0)
(0 0 0)
(0 0 0)
(0 0 0)
(0 0 0)
(0 0 0)
(0 0 0)
(0 7.57689e-28 -2.68152e-29)
(0 7.96009e-13 -1.79216e-11)
(0 -0.000293854 -3.11073e-05)
(0 -0.00111992 -9.05319e-06)
(0 -0.000701616 -0.000103728)
(0 -0.000474577 -7.057e-05)
(0 -0.000504349 -2.80451e-05)
(0 -0.000551136 -1.148e-05)
(0 -0.000510309 -4.34394e-06)
(0 -0.000714871 -1.89128e-06)
(0 -0.000675207 6.0465e-08)
(0 -0.000497188 8.4601e-07)
(0 -0.000479679 1.22403e-06)
(0 -0.000615528 1.74865e-06)
(0 -0.000485274 1.48498e-06)
(0 -0.000560157 1.50876e-06)
(0 -0.000748082 2.01445e-06)
(0 -0.000625727 1.98228e-06)
(0 -0.000706034 2.39663e-06)
(0 -0.000493873 1.80164e-06)
(0 -0.000475387 1.75433e-06)
(0 -0.000477245 1.7698e-06)
(0 -0.000522417 2.09816e-06)
(0 -0.000549167 2.10219e-06)
(0 -0.00055076 1.9813e-06)
(0 -0.000527152 1.94398e-06)
(0 -0.00077394 2.86137e-06)
(0 -0.000485593 1.76046e-06)
(0 -0.000555792 2.15827e-06)
(0 -0.000584495 2.03668e-06)
(0 -0.000730867 2.4854e-06)
(0 -0.00077997 2.40012e-06)
(0 -0.000558096 1.99646e-06)
(0 -0.000781004 2.62972e-06)
(0 -0.000586821 2.25637e-06)
(0 -0.000534267 2.18744e-06)
(0 -0.000511801 2.29397e-06)
(0 -0.000491021 2.03233e-06)
(0 -0.00058879 2.2567e-06)
(0 -0.000512192 2.05575e-06)
(0 -0.000619161 2.27124e-06)
(0 -0.000559979 2.1491e-06)
(0 -0.000534066 2.08947e-06)
(0 -0.000617224 2.33419e-06)
(0 -0.000779726 2.25132e-06)
(0 -0.00053126 2.05099e-06)
(0 -0.000582908 2.33608e-06)
(0 -0.000581562 2.1825e-06)
(0 -0.000579562 1.89656e-06)
(0 -0.000576922 1.75175e-06)
(0 -0.000574307 2.08013e-06)
(0 -0.000520114 2.04125e-06)
(0 -0.000517612 2.14287e-06)
(0 -0.00047223 2.12091e-06)
(0 -0.000562192 1.7723e-06)
(0 -0.000696007 1.1779e-06)
(0 -0.000526106 1.38646e-06)
(0 -0.000575546 1.96468e-06)
(0 -0.00045206 1.92456e-06)
(0 -0.000535351 2.20846e-06)
(0 -0.000502846 1.05575e-06)
(0 -0.000574988 1.77454e-06)
(0 0 0)
(0 0 0)
(0 0 0)
(0 0 0)
(0 0 0)
(0 0 0)
(0 0 0)
(0 0 0)
(0 0 0)
(0 0 0)
(0 0 0)
(0 0 0)
(0 0 0)
(0 0 0)
(0 0 0)
(0 0 0)
(0 0 0)
(0 0 0)
(0 0 0)
(0 0 0)
(0 0 0)
(0 0 0)
(0 0 0)
(0 0 0)
(0 0 0)
(0 0 0)
(0 0 0)
(0 0 0)
(0 0 0)
(0 0 0)
(0 0 0)
(0 0 0)
(0 0 0)
(0 0 0)
(0 0 0)
(0 0 0)
(0 0 0)
(0 1.93043e-21 0)
(0 -1.95303e-08 -2.44381e-20)
(0 -0.00126605 -4.68109e-10)
(0 -0.00101064 5.84106e-08)
(0 -0.000696271 -2.82089e-08)
(0 -0.00052083 -1.99477e-05)
(0 -0.000618743 -3.87426e-05)
(0 -0.000621061 -2.59035e-05)
(0 -0.00080516 -1.87737e-05)
(0 -0.000652985 -8.28607e-06)
(0 -0.000849278 -5.30327e-06)
(0 -0.000677885 -1.04921e-06)
(0 -0.00071088 5.02619e-07)
(0 -0.000673676 2.01134e-06)
(0 -0.000790389 2.85138e-06)
(0 -0.000788888 3.07254e-06)
(0 -0.000558984 2.3737e-06)
(0 -0.000609133 2.69727e-06)
(0 -0.000835571 3.78995e-06)
(0 -0.00088959 4.36663e-06)
(0 -0.000667069 3.9427e-06)
(0 -0.000580021 3.73503e-06)
(0 -0.000555604 3.60975e-06)
(0 -0.00083112 5.44518e-06)
(0 -0.000737916 4.5938e-06)
(0 -0.000577225 3.73428e-06)
(0 -0.000631128 4.13292e-06)
(0 -0.000881218 5.58643e-06)
(0 -0.000550758 3.5498e-06)
(0 -0.000877499 5.56358e-06)
(0 -0.000571921 3.739e-06)
(0 -0.000771334 4.73339e-06)
(0 -0.00059539 3.49287e-06)
(0 -0.000869449 4.92016e-06)
(0 -0.000764616 4.18158e-06)
(0 -0.000862816 5.18354e-06)
(0 -0.000758204 4.82457e-06)
(0 -0.000855069 6.26113e-06)
(0 -0.000533425 4.30437e-06)
(0 -0.000531702 4.23754e-06)
(0 -0.000578008 4.73848e-06)
(0 -0.00057598 4.2987e-06)
(0 -0.000600913 4.66886e-06)
(0 -0.000660791 4.76003e-06)
(0 -0.000831913 5.6619e-06)
(0 -0.000565066 3.25707e-06)
(0 -0.000770941 5.06367e-06)
(0 -0.000721252 5.41831e-06)
(0 -0.000641853 4.8077e-06)
(0 -0.000505881 4.04802e-06)
(0 -0.000502797 3.66884e-06)
(0 -0.000703313 4.90703e-06)
(0 -0.000624528 4.7807e-06)
(0 -0.000618922 4.99415e-06)
(0 -0.000775196 5.78528e-06)
(0 -0.000606237 3.72642e-06)
(0 -0.000496125 2.38766e-06)
(0 -0.000592533 2.90523e-06)
(0 -0.000739248 3.87659e-06)
(0 -0.000547487 4.49714e-06)
(0 -0.000717424 5.25135e-06)
(0 -0.000442677 2.35697e-06)
(0 -0.000646279 3.49438e-06)
(0 0 0)
(0 0 0)
(0 0 0)
(0 0 0)
(0 0 0)
(0 0 0)
(0 0 0)
(0 0 0)
(0 0 0)
(0 0 0)
(0 0 0)
(0 0 0)
(0 0 0)
(0 0 0)
(0 0 0)
(0 0 0)
(0 0 0)
(0 0 0)
(0 0 0)
(0 0 0)
(0 0 0)
(0 0 0)
(0 0 0)
(0 0 0)
(0 0 0)
(0 0 0)
(0 0 0)
(0 0 0)
(0 0 0)
(0 0 0)
(0 0 0)
(0 0 0)
(0 0 0)
(0 0 0)
(0 0 0)
(0 0 0)
(0 0 0)
(0 2.31146e-15 -4.92891e-44)
(0 -1.42966e-05 -3.53038e-15)
(0 -0.00121125 3.27421e-10)
(0 -0.000916574 2.1901e-07)
(0 -0.000616537 -7.19049e-06)
(0 -0.000636634 -3.01343e-05)
(0 -0.000791421 -3.81526e-05)
(0 -0.000661864 -2.31864e-05)
(0 -0.000672581 -1.54549e-05)
(0 -0.000591608 -8.66047e-06)
(0 -0.000680176 -6.19293e-06)
(0 -0.000848383 -3.35626e-06)
(0 -0.000567697 -2.11277e-07)
(0 -0.000904313 1.57583e-06)
(0 -0.000846725 2.38659e-06)
(0 -0.000616545 2.41575e-06)
(0 -0.000616364 3.09393e-06)
(0 -0.000677329 3.65544e-06)
(0 -0.000676899 3.22182e-06)
(0 -0.000676233 3.44532e-06)
(0 -0.000750006 4.74844e-06)
(0 -0.000709496 5.18235e-06)
(0 -0.000612126 4.6689e-06)
(0 -0.000839011 5.75084e-06)
(0 -0.000638576 4.20926e-06)
(0 -0.00074256 5.15056e-06)
(0 -0.000740371 5.18335e-06)
(0 -0.000738613 5.25448e-06)
(0 -0.00055366 4.32186e-06)
(0 -0.000602585 4.29843e-06)
(0 -0.000734124 5.48293e-06)
(0 -0.000822906 5.20383e-06)
(0 -0.000771803 4.85682e-06)
(0 -0.000595115 3.61721e-06)
(0 -0.000621593 3.64447e-06)
(0 -0.000619973 4.04893e-06)
(0 -0.000541359 3.60222e-06)
(0 -0.000680688 4.9182e-06)
(0 -0.000715343 6.19867e-06)
(0 -0.000674394 5.92527e-06)
(0 -0.000795871 6.87034e-06)
(0 -0.000603539 4.90251e-06)
(0 -0.000838583 6.54063e-06)
(0 -0.000625716 4.37607e-06)
(0 -0.000776648 4.98112e-06)
(0 -0.000515715 3.471e-06)
(0 -0.000558751 3.60764e-06)
(0 -0.00071778 5.47614e-06)
(0 -0.000577847 4.58349e-06)
(0 -0.000707605 6.50872e-06)
(0 -0.000519714 4.79727e-06)
(0 -0.000494293 4.13446e-06)
(0 -0.000534787 4.74019e-06)
(0 -0.00061366 5.27226e-06)
(0 -0.000503316 3.93472e-06)
(0 -0.000521284 3.79137e-06)
(0 -0.000540165 3.60747e-06)
(0 -0.000467812 3.09362e-06)
(0 -0.000462576 2.96572e-06)
(0 -0.000682825 5.03539e-06)
(0 -0.00067291 3.5983e-06)
(0 -0.000442486 3.35677e-06)
(0 -0.000608929 2.69706e-06)
(0 0 0)
(0 0 0)
(0 0 0)
(0 0 0)
(0 0 0)
(0 0 0)
(0 0 0)
(0 0 0)
(0 0 0)
(0 0 0)
(0 0 0)
(0 0 0)
(0 0 0)
(0 0 0)
(0 0 0)
(0 0 0)
(0 0 0)
(0 0 0)
(0 0 0)
(0 0 0)
(0 0 0)
(0 0 0)
(0 0 0)
(0 0 0)
(0 0 0)
(0 0 0)
(0 0 0)
(0 0 0)
(0 0 0)
(0 0 0)
(0 0 0)
(0 0 0)
(0 0 0)
(0 0 0)
(0 0 0)
(0 0 0)
(0 5.15876e-32 0)
(0 -1.32836e-12 -9.14557e-32)
(0 -0.00080424 -3.25334e-12)
(0 -0.00109595 8.5229e-09)
(0 -0.000758475 8.53013e-09)
(0 -0.0005406 -1.08044e-05)
(0 -0.000666946 -2.6375e-05)
(0 -0.000733099 -2.82908e-05)
(0 -0.00067505 -1.93498e-05)
(0 -0.000900814 -1.73443e-05)
(0 -0.000594471 -7.14279e-06)
(0 -0.000683278 -5.72552e-06)
(0 -0.000758329 -3.64277e-06)
(0 -0.000851112 -8.55776e-07)
(0 -0.000799966 4.89016e-07)
(0 -0.000715725 1.75821e-06)
(0 -0.000798444 2.92106e-06)
(0 -0.000713563 3.72064e-06)
(0 -0.000845605 4.85783e-06)
(0 -0.000588897 3.31701e-06)
(0 -0.000615168 3.6208e-06)
(0 -0.0007111 4.58961e-06)
(0 -0.000749287 5.39531e-06)
(0 -0.000840739 6.21222e-06)
(0 -0.00064012 4.64401e-06)
(0 -0.000559908 4.14437e-06)
(0 -0.000609786 4.30825e-06)
(0 -0.000582578 4.30746e-06)
(0 -0.000785743 5.69286e-06)
(0 -0.000887363 6.75356e-06)
(0 -0.000663868 5.03896e-06)
(0 -0.000826791 6.18178e-06)
(0 -0.000574665 3.75304e-06)
(0 -0.000627529 3.85927e-06)
(0 -0.000729456 4.84168e-06)
(0 -0.000546062 3.76766e-06)
(0 -0.000767447 5.84007e-06)
(0 -0.00054276 4.46617e-06)
(0 -0.000617771 4.88514e-06)
(0 -0.00071764 6.16642e-06)
(0 -0.000613197 5.37957e-06)
(0 -0.000711884 5.58069e-06)
(0 -0.000580331 4.8149e-06)
(0 -0.000705404 4.85033e-06)
(0 -0.000602034 4.09581e-06)
(0 -0.000599215 4.17252e-06)
(0 -0.000569568 4.59376e-06)
(0 -0.000542023 4.11968e-06)
(0 -0.000824853 6.31316e-06)
(0 -0.000615703 4.83505e-06)
(0 -0.000763262 5.96017e-06)
(0 -0.000712622 5.81339e-06)
(0 -0.000631961 5.48064e-06)
(0 -0.000742759 6.41228e-06)
(0 -0.000654436 5.42511e-06)
(0 -0.000685889 5.74789e-06)
(0 -0.000607591 4.82289e-06)
(0 -0.000476447 3.87457e-06)
(0 -0.000537577 4.98706e-06)
(0 -0.000586551 5.53824e-06)
(0 -0.000686869 4.46184e-06)
(0 -0.000570443 2.07471e-06)
(0 -0.000662846 3.68307e-06)
(0 -0.000576535 1.75529e-06)
(0 0 0)
(0 0 0)
(0 0 0)
(0 0 0)
(0 0 0)
(0 0 0)
(0 0 0)
(0 0 0)
(0 0 0)
(0 0 0)
(0 0 0)
(0 0 0)
(0 0 0)
(0 0 0)
(0 0 0)
(0 0 0)
(0 0 0)
(0 0 0)
(0 0 0)
(0 0 0)
(0 0 0)
(0 0 0)
(0 0 0)
(0 0 0)
(0 0 0)
(0 0 0)
(0 0 0)
(0 0 0)
(0 0 0)
(0 0 0)
(0 0 0)
(0 0 0)
(0 0 0)
(0 0 0)
(0 0 0)
(0 0 0)
(0 3.35492e-23 -6.64989e-35)
(0 -3.63787e-09 -2.76698e-13)
(0 -0.00129292 -3.88667e-07)
(0 -0.00107024 -5.15761e-07)
(0 -0.000751161 -2.83841e-05)
(0 -0.000576817 -4.05618e-05)
(0 -0.000620224 -3.02319e-05)
(0 -0.000647271 -2.46258e-05)
(0 -0.000629286 -1.70545e-05)
(0 -0.00082793 -1.6428e-05)
(0 -0.000702772 -7.82375e-06)
(0 -0.000584935 -3.94895e-06)
(0 -0.000613556 -2.2244e-06)
(0 -0.000644221 -6.76475e-07)
(0 -0.000677137 5.91154e-07)
(0 -0.000845473 2.26833e-06)
(0 -0.000589316 1.99963e-06)
(0 -0.000900394 3.95068e-06)
(0 -0.00089872 4.74637e-06)
(0 -0.000642172 4.14373e-06)
(0 -0.000641572 4.32822e-06)
(0 -0.000707928 4.79991e-06)
(0 -0.000789741 5.71029e-06)
(0 -0.00067072 4.72456e-06)
(0 -0.000743633 5.90044e-06)
(0 -0.000742121 5.97692e-06)
(0 -0.000580132 4.66255e-06)
(0 -0.000885714 6.85157e-06)
(0 -0.00066336 5.0993e-06)
(0 -0.000602221 4.51329e-06)
(0 -0.000660704 5.07242e-06)
(0 -0.000823218 6.34594e-06)
(0 -0.000657471 4.85502e-06)
(0 -0.00054686 4.00825e-06)
(0 -0.000594962 4.53912e-06)
(0 -0.000621382 4.80289e-06)
(0 -0.000811459 6.02978e-06)
(0 -0.000807734 6.68645e-06)
(0 -0.000613036 5.03994e-06)
(0 -0.000852756 6.88747e-06)
(0 -0.000848262 7.23951e-06)
(0 -0.000528549 4.45237e-06)
(0 -0.000787538 6.88844e-06)
(0 -0.000523517 4.19863e-06)
(0 -0.000520989 4.27551e-06)
(0 -0.000621324 5.29667e-06)
(0 -0.000686053 6.25978e-06)
(0 -0.000512126 4.87208e-06)
(0 -0.000677861 5.85898e-06)
(0 -0.000552036 5.09946e-06)
(0 -0.000574763 5.07267e-06)
(0 -0.00050011 4.3234e-06)
(0 -0.000594885 5.156e-06)
(0 -0.000590103 5.04338e-06)
(0 -0.0005578 5.23486e-06)
(0 -0.000528645 5.15699e-06)
(0 -0.000501599 4.74853e-06)
(0 -0.000518698 5.37694e-06)
(0 -0.000661624 6.15866e-06)
(0 -0.000739346 6.81362e-06)
(0 -0.000644654 4.2944e-06)
(0 -0.000491969 2.04166e-06)
(0 -0.000589205 1.24146e-06)
(0 -0.000576729 6.463e-07)
(0 0 0)
(0 0 0)
(0 0 0)
(0 0 0)
(0 0 0)
(0 0 0)
(0 0 0)
(0 0 0)
(0 0 0)
(0 0 0)
(0 0 0)
(0 0 0)
(0 0 0)
(0 0 0)
(0 0 0)
(0 0 0)
(0 0 0)
(0 0 0)
(0 0 0)
(0 0 0)
(0 0 0)
(0 0 0)
(0 0 0)
(0 0 0)
(0 0 0)
(0 0 0)
(0 0 0)
(0 0 0)
(0 0 0)
(0 0 0)
(0 0 0)
(0 0 0)
(0 0 0)
(0 0 0)
(0 0 0)
(0 3.03645e-25 0)
(0 -3.01168e-10 -1.69646e-26)
(0 -0.00129819 4.31677e-12)
(0 -0.00108407 1.28028e-08)
(0 -0.000779492 6.95447e-07)
(0 -0.000594889 -6.27072e-06)
(0 -0.000700996 -2.64166e-05)
(0 -0.000829656 -3.05964e-05)
(0 -0.000623815 -1.93456e-05)
(0 -0.000723169 -1.69632e-05)
(0 -0.00068837 -1.30446e-05)
(0 -0.000913112 -1.15142e-05)
(0 -0.000909165 -7.13244e-06)
(0 -0.000905229 -3.92669e-06)
(0 -0.0009023 -1.57331e-06)
(0 -0.000751294 5.94262e-07)
(0 -0.000843986 1.99965e-06)
(0 -0.000614758 2.35811e-06)
(0 -0.000643663 2.47211e-06)
(0 -0.0007107 3.5089e-06)
(0 -0.000842126 4.87541e-06)
(0 -0.000747249 4.74459e-06)
(0 -0.000706544 4.45195e-06)
(0 -0.000892111 5.89928e-06)
(0 -0.000581794 4.12205e-06)
(0 -0.000833453 6.3785e-06)
(0 -0.000605888 4.76369e-06)
(0 -0.000699624 5.5982e-06)
(0 -0.000553374 4.16965e-06)
(0 -0.000697055 5.6768e-06)
(0 -0.000601337 5.04933e-06)
(0 -0.000574276 4.80961e-06)
(0 -0.000877201 6.67179e-06)
(0 -0.000547972 4.3231e-06)
(0 -0.00059581 4.81523e-06)
(0 -0.000815257 6.41637e-06)
(0 -0.000566075 4.71193e-06)
(0 -0.000564498 4.29959e-06)
(0 -0.000680539 4.97839e-06)
(0 -0.000677707 5.0601e-06)
(0 -0.000610836 4.45797e-06)
(0 -0.0006388 4.95014e-06)
(0 -0.00066923 5.45122e-06)
(0 -0.000665932 5.45818e-06)
(0 -0.000548104 4.98523e-06)
(0 -0.000545444 5.11923e-06)
(0 -0.000594118 5.34968e-06)
(0 -0.000652542 5.36861e-06)
(0 -0.00072392 6.52485e-06)
(0 -0.000678912 5.55991e-06)
(0 -0.00075743 6.46742e-06)
(0 -0.000668197 6.06109e-06)
(0 -0.000519681 5.42462e-06)
(0 -0.000494579 5.01475e-06)
(0 -0.000512101 5.20732e-06)
(0 -0.000647823 6.55268e-06)
(0 -0.00067917 7.41128e-06)
(0 -0.000520077 5.76248e-06)
(0 -0.000627036 6.33408e-06)
(0 -0.000465404 4.40738e-06)
(0 -0.000687677 5.46199e-06)
(0 -0.000678758 3.56587e-06)
(0 -0.000447151 2.89051e-06)
(0 -0.00044007 1.99337e-06)
(0 -0.000451685 2.42706e-06)
(0 0 0)
(0 0 0)
(0 0 0)
(0 0 0)
(0 0 0)
(0 0 0)
(0 0 0)
(0 0 0)
(0 0 0)
(0 0 0)
(0 0 0)
(0 0 0)
(0 0 0)
(0 0 0)
(0 0 0)
(0 0 0)
(0 0 0)
(0 0 0)
(0 0 0)
(0 0 0)
(0 0 0)
(0 0 0)
(0 0 0)
(0 0 0)
(0 0 0)
(0 0 0)
(0 0 0)
(0 0 0)
(0 0 0)
(0 0 0)
(0 0 0)
(0 0 0)
(0 0 0)
(0 0 0)
(0 0 0)
(0 0 0)
(0 1.43084e-13 -1.69646e-26)
(0 -0.000156906 1.67772e-11)
(0 -0.00119071 1.17807e-07)
(0 -0.000884213 1.64903e-06)
(0 -0.00070066 -8.64432e-06)
(0 -0.00065296 -1.93119e-05)
(0 -0.000612695 -1.87161e-05)
(0 -0.000559799 -1.32424e-05)
(0 -0.000793977 -1.61194e-05)
(0 -0.000622169 -1.02531e-05)
(0 -0.00068704 -8.65128e-06)
(0 -0.000576125 -4.71119e-06)
(0 -0.000691593 -3.78298e-06)
(0 -0.000602579 -1.37754e-06)
(0 -0.000864033 -2.19265e-07)
(0 -0.000919805 1.22751e-06)
(0 -0.000917645 2.51838e-06)
(0 -0.000598489 2.33304e-06)
(0 -0.000857698 4.0253e-06)
(0 -0.000653436 3.23903e-06)
(0 -0.000760634 3.99328e-06)
(0 -0.000570554 3.57133e-06)
(0 -0.00068356 4.21975e-06)
(0 -0.000718093 4.58456e-06)
(0 -0.00090635 5.88883e-06)
(0 -0.000753798 5.52087e-06)
(0 -0.000712328 5.05624e-06)
(0 -0.000613918 4.77588e-06)
(0 -0.000896448 6.60082e-06)
(0 -0.000745037 6.05988e-06)
(0 -0.000835222 6.98286e-06)
(0 -0.000666813 4.87036e-06)
(0 -0.000738174 5.67897e-06)
(0 -0.000662205 5.18179e-06)
(0 -0.000574257 4.26819e-06)
(0 -0.000875776 6.89255e-06)
(0 -0.000727155 5.57598e-06)
(0 -0.000621111 4.50831e-06)
(0 -0.000541928 4.2479e-06)
(0 -0.000647371 4.83525e-06)
(0 -0.000716073 5.77142e-06)
(0 -0.000535732 4.52613e-06)
(0 -0.00060944 5.34897e-06)
(0 -0.000707084 6.37659e-06)
(0 -0.000789967 6.77222e-06)
(0 -0.000738778 6.58786e-06)
(0 -0.000567979 4.42357e-06)
(0 -0.000729299 5.57e-06)
(0 -0.000587386 4.68745e-06)
(0 -0.000583728 4.36487e-06)
(0 -0.000579678 4.93217e-06)
(0 -0.000709953 7.36899e-06)
(0 -0.000570853 6.60557e-06)
(0 -0.000625521 7.15511e-06)
(0 -0.000589291 5.74229e-06)
(0 -0.000776691 6.75453e-06)
(0 -0.000678152 6.51984e-06)
(0 -0.000496322 4.57259e-06)
(0 -0.00070267 6.3062e-06)
(0 -0.000740197 5.22127e-06)
(0 -0.000458672 2.55047e-06)
(0 -0.000600867 4.49977e-06)
(0 -0.000484198 4.11628e-06)
(0 -0.000648381 4.78082e-06)
(0 0 0)
(0 0 0)
(0 0 0)
(0 0 0)
(0 0 0)
(0 0 0)
(0 0 0)
(0 0 0)
(0 0 0)
(0 0 0)
(0 0 0)
(0 0 0)
(0 0 0)
(0 0 0)
(0 0 0)
(0 0 0)
(0 0 0)
(0 0 0)
(0 0 0)
(0 0 0)
(0 0 0)
(0 0 0)
(0 0 0)
(0 0 0)
(0 0 0)
(0 0 0)
(0 0 0)
(0 0 0)
(0 0 0)
(0 0 0)
(0 0 0)
(0 0 0)
(0 0 0)
(0 0 0)
(0 0 0)
(0 4.53793e-29 0)
(0 -3.27855e-11 -2.20588e-18)
(0 -0.00131373 -5.25541e-08)
(0 -0.00112691 -1.64755e-07)
(0 -0.000797206 -1.72863e-05)
(0 -0.000585458 -4.11318e-05)
(0 -0.000732346 -4.10632e-05)
(0 -0.000540298 -1.67478e-05)
(0 -0.00072944 -1.25204e-05)
(0 -0.000586646 -7.08307e-06)
(0 -0.000570531 -5.43257e-06)
(0 -0.000575063 -4.18129e-06)
(0 -0.000811593 -4.6397e-06)
(0 -0.000577724 -1.88587e-06)
(0 -0.000921714 -1.55413e-06)
(0 -0.000659894 1.75618e-07)
(0 -0.000769749 9.45194e-07)
(0 -0.000603474 1.41461e-06)
(0 -0.000729227 2.68687e-06)
(0 -0.000768736 3.56513e-06)
(0 -0.000691686 3.57271e-06)
(0 -0.000576308 2.99298e-06)
(0 -0.00091846 5.76291e-06)
(0 -0.000915979 5.11801e-06)
(0 -0.000653237 3.60844e-06)
(0 -0.000684133 4.03588e-06)
(0 -0.000802691 5.36271e-06)
(0 -0.000568167 3.88155e-06)
(0 -0.000848448 6.05133e-06)
(0 -0.000565109 3.94626e-06)
(0 -0.000750696 5.62203e-06)
(0 -0.000897809 6.68698e-06)
(0 -0.00067198 4.7093e-06)
(0 -0.000609204 4.46823e-06)
(0 -0.000702607 5.08361e-06)
(0 -0.000665056 4.91718e-06)
(0 -0.000697338 4.89908e-06)
(0 -0.00062908 4.61275e-06)
(0 -0.000548888 4.28787e-06)
(0 -0.000818689 6.72371e-06)
(0 -0.000567871 4.27911e-06)
(0 -0.0008646 6.05074e-06)
(0 -0.000758672 6.18865e-06)
(0 -0.000854078 6.98133e-06)
(0 -0.000749244 5.7215e-06)
(0 -0.000528291 3.94465e-06)
(0 -0.000838491 6.55362e-06)
(0 -0.000522169 4.29129e-06)
(0 -0.000541611 4.48459e-06)
(0 -0.000727498 6.07128e-06)
(0 -0.000534962 4.46375e-06)
(0 -0.000610031 5.32585e-06)
(0 -0.00071105 6.35178e-06)
(0 -0.000797897 8.20961e-06)
(0 -0.000790207 8.13614e-06)
(0 -0.00061851 5.84439e-06)
(0 -0.000506651 4.31732e-06)
(0 -0.00057644 5.13793e-06)
(0 -0.000632846 5.56143e-06)
(0 -0.000660929 3.97616e-06)
(0 -0.000738119 3.67608e-06)
(0 -0.000476114 3.95525e-06)
(0 -0.000490147 4.35388e-06)
(0 -0.000587859 5.26842e-06)
(0 -0.000472946 3.2719e-06)
(0 0 0)
(0 0 0)
(0 0 0)
(0 0 0)
(0 0 0)
(0 0 0)
(0 0 0)
(0 0 0)
(0 0 0)
(0 0 0)
(0 0 0)
(0 0 0)
(0 0 0)
(0 0 0)
(0 0 0)
(0 0 0)
(0 0 0)
(0 0 0)
(0 0 0)
(0 0 0)
(0 0 0)
(0 0 0)
(0 0 0)
(0 0 0)
(0 0 0)
(0 0 0)
(0 0 0)
(0 0 0)
(0 0 0)
(0 0 0)
(0 0 0)
(0 0 0)
(0 0 0)
(0 0 0)
(0 0 0)
(0 3.73462e-14 -9.31425e-32)
(0 -7.00338e-05 -3.35799e-12)
(0 -0.0011573 -5.03439e-09)
(0 -0.000834202 1.90057e-07)
(0 -0.000608142 -1.14152e-05)
(0 -0.000556545 -2.65721e-05)
(0 -0.000765655 -3.14531e-05)
(0 -0.000707227 -1.67754e-05)
(0 -0.000789611 -9.20596e-06)
(0 -0.0008908 -5.021e-06)
(0 -0.000715292 -4.29827e-06)
(0 -0.000839179 -3.77558e-06)
(0 -0.00062204 -3.18969e-06)
(0 -0.000949194 -3.13613e-06)
(0 -0.00064824 -1.3129e-06)
(0 -0.000947929 5.25214e-07)
(0 -0.000749012 1.11771e-06)
(0 -0.000711256 1.73521e-06)
(0 -0.000593017 2.18598e-06)
(0 -0.000945469 3.45332e-06)
(0 -0.000786886 3.24289e-06)
(0 -0.000589882 2.9282e-06)
(0 -0.00093989 4.29559e-06)
(0 -0.000640651 2.52289e-06)
(0 -0.000586251 2.65733e-06)
(0 -0.000638054 3.59442e-06)
(0 -0.000777661 4.24862e-06)
(0 -0.000734528 3.86629e-06)
(0 -0.000731545 3.60781e-06)
(0 -0.000692471 4.1955e-06)
(0 -0.00081114 4.78058e-06)
(0 -0.00085862 4.85374e-06)
(0 -0.000596052 3.45843e-06)
(0 -0.000718157 4.67457e-06)
(0 -0.000618277 3.72539e-06)
(0 -0.000676903 4.02993e-06)
(0 -0.000673884 3.98197e-06)
(0 -0.000670769 4.33965e-06)
(0 -0.000636012 4.82395e-06)
(0 -0.000699645 5.02708e-06)
(0 -0.000696204 4.31547e-06)
(0 -0.000572322 2.97943e-06)
(0 -0.000768785 4.29748e-06)
(0 -0.000764281 4.13798e-06)
(0 -0.00061551 3.47729e-06)
(0 -0.000558847 4.07277e-06)
(0 -0.000671847 4.30138e-06)
(0 -0.000634005 4.55697e-06)
(0 -0.00073963 5.79654e-06)
(0 -0.000624684 4.68407e-06)
(0 -0.00061978 4.67455e-06)
(0 -0.000585594 4.86135e-06)
(0 -0.000580964 4.40786e-06)
(0 -0.000804682 5.29283e-06)
(0 -0.000796851 5.34187e-06)
(0 -0.000623327 4.58733e-06)
(0 -0.000585905 5.11957e-06)
(0 -0.000681047 5.40184e-06)
(0 -0.000673086 4.18647e-06)
(0 -0.000472451 2.82542e-06)
(0 -0.000508768 1.9959e-06)
(0 -0.000732659 4.38818e-06)
(0 -0.000719569 4.95278e-06)
(0 -0.000530603 3.75614e-06)
(0 -0.000495197 5.11258e-06)
(0 0 0)
(0 0 0)
(0 0 0)
(0 0 0)
(0 0 0)
(0 0 0)
(0 0 0)
(0 0 0)
(0 0 0)
(0 0 0)
(0 0 0)
(0 0 0)
(0 0 0)
(0 0 0)
(0 0 0)
(0 0 0)
(0 0 0)
(0 0 0)
(0 0 0)
(0 0 0)
(0 0 0)
(0 0 0)
(0 0 0)
(0 0 0)
(0 0 0)
(0 0 0)
(0 0 0)
(0 0 0)
(0 0 0)
(0 0 0)
(0 0 0)
(0 0 0)
(0 0 0)
(0 0 0)
(0 3.56509e-23 0)
(0 -3.53952e-09 -9.31425e-32)
(0 -0.00129129 -3.47898e-13)
(0 -0.00106705 -3.1786e-10)
(0 -0.000747349 6.2213e-08)
(0 -0.00064884 -5.46896e-06)
(0 -0.000687469 -1.04025e-05)
(0 -0.000669558 -9.61206e-06)
(0 -0.000660475 -6.19544e-06)
(0 -0.000952771 -4.01916e-06)
(0 -0.00102445 -2.34958e-06)
(0 -0.000649198 -1.9178e-06)
(0 -0.000819569 -1.76466e-06)
(0 -0.000652793 -1.39542e-06)
(0 -0.000681962 -1.3617e-06)
(0 -0.000682614 -5.83506e-07)
(0 -0.000870421 4.02717e-09)
(0 -0.00082451 4.63985e-07)
(0 -0.000711431 6.00612e-07)
(0 -0.000973556 1.65064e-06)
(0 -0.00077764 8.84595e-07)
(0 -0.000738615 9.81785e-07)
(0 -0.000857838 1.6916e-06)
(0 -0.000854774 1.33982e-06)
(0 -0.000667466 9.81789e-07)
(0 -0.000664418 1.19411e-06)
(0 -0.00101193 2.46053e-06)
(0 -0.000840286 1.74791e-06)
(0 -0.000655455 1.10583e-06)
(0 -0.000625216 9.95928e-07)
(0 -0.000828311 1.81719e-06)
(0 -0.000781126 1.60647e-06)
(0 -0.000777391 1.54008e-06)
(0 -0.000668226 1.49168e-06)
(0 -0.000858635 2.15659e-06)
(0 -0.000691616 1.63782e-06)
(0 -0.000687223 1.52902e-06)
(0 -0.000682865 1.52592e-06)
(0 -0.00067826 1.67415e-06)
(0 -0.00088283 2.76209e-06)
(0 -0.000934989 2.82746e-06)
(0 -0.000606655 1.35315e-06)
(0 -0.000602053 1.26901e-06)
(0 -0.000686924 1.35053e-06)
(0 -0.000649981 1.2182e-06)
(0 -0.000589171 1.30182e-06)
(0 -0.000893897 2.93642e-06)
(0 -0.000665522 1.78687e-06)
(0 -0.000628041 1.73048e-06)
(0 -0.000767589 2.33774e-06)
(0 -0.000760321 2.47657e-06)
(0 -0.000582023 1.75801e-06)
(0 -0.000842271 3.23478e-06)
(0 -0.000735438 2.58512e-06)
(0 -0.000589459 1.33755e-06)
(0 -0.000644056 1.48543e-06)
(0 -0.00060485 1.75639e-06)
(0 -0.000794708 3.09439e-06)
(0 -0.000692601 2.23424e-06)
(0 -0.000528652 1.2275e-06)
(0 -0.000761866 2.8562e-06)
(0 -0.000512666 1.19583e-06)
(0 -0.000554022 8.80647e-07)
(0 -0.000573114 1.01329e-06)
(0 -0.000561607 1.70415e-06)
(0 -0.000648376 3.63145e-06)
)
;

boundaryField
{
    inlet
    {
        type            fixedValue;
        value           uniform (0 -0.0005 0);
    }
    outlet
    {
        type            fluxCorrectedVelocity;
        phi             phi.gas;
        rho             rho.gas;
        value           uniform (0 0 0);
    }
    walls
    {
        type            fixedValue;
        value           uniform (0 0 0);
    }
}


// ************************************************************************* //
