/*--------------------------------*- C++ -*----------------------------------*\
| =========                 |                                                 |
| \\      /  F ield         | foam-extend: Open Source CFD                    |
|  \\    /   O peration     | Version:     5.0                                |
|   \\  /    A nd           | Web:         http://www.foam-extend.org         |
|    \\/     M anipulation  |                                                 |
\*---------------------------------------------------------------------------*/
FoamFile
{
    version     2.0;
    format      ascii;
    class       volVectorField;
    location    "8000";
    object      U.oil;
}
// * * * * * * * * * * * * * * * * * * * * * * * * * * * * * * * * * * * * * //

dimensions      [0 1 -1 0 0 0 0];

internalField   nonuniform List<vector> 
1000
(
(0 -0.000585828 -6.88034e-06)
(0 -0.000647054 -4.26241e-06)
(0 -0.000465556 -1.92864e-06)
(0 -0.000535337 -1.4944e-06)
(0 -0.00044014 -8.6039e-07)
(0 -0.000593491 -8.29481e-07)
(0 -0.000629067 -6.35636e-07)
(0 -0.000669834 -4.92217e-07)
(0 -0.000557486 -2.9882e-07)
(0 -0.000501272 -1.96252e-07)
(0 -0.000500933 -1.43274e-07)
(0 -0.000625856 -1.30657e-07)
(0 -0.000526847 -8.00972e-08)
(0 -0.00055597 -6.12699e-08)
(0 -0.000555865 -4.40066e-08)
(0 -0.000454737 -2.5411e-08)
(0 -0.000416803 -1.58644e-08)
(0 -0.000454666 -1.0898e-08)
(0 -0.00066682 -8.15173e-09)
(0 -0.000434876 -7.3139e-10)
(0 -0.000588366 5.11094e-09)
(0 -0.000416771 8.28836e-09)
(0 -0.000526476 1.7374e-08)
(0 -0.00055577 2.73905e-08)
(0 -0.000667004 4.68788e-08)
(0 -0.000526671 5.15967e-08)
(0 -0.000435177 5.87063e-08)
(0 -0.000556237 1.02598e-07)
(0 -0.000455302 1.14302e-07)
(0 -0.000435764 1.48398e-07)
(0 -0.000477647 2.20056e-07)
(0 -0.000502073 3.12246e-07)
(0 -0.000457097 3.83221e-07)
(0 -0.000457998 5.1772e-07)
(0 -0.000531726 8.12965e-07)
(0 -0.000422475 8.81194e-07)
(0 -0.000424587 1.23104e-06)
(0 -0.0004462 1.86832e-06)
(0 -0.000648321 4.22272e-06)
(0 -0.000555917 6.40671e-06)
(0 -0.00060734 1.37759e-05)
(0 -0.000669771 1.21948e-05)
(0 -0.000589005 -1.80525e-05)
(0 -0.000495574 -1.73867e-05)
(0 -0.000466703 -1.1156e-05)
(0 -0.000437426 -6.94515e-06)
(0 -0.000361788 -4.63036e-06)
(0 -0.000479198 -5.19713e-06)
(0 -0.000429942 -4.11424e-06)
(0 -0.000299069 -2.4281e-06)
(0 -0.00027497 -2.08118e-06)
(0 -0.000340805 -2.55934e-06)
(0 -0.000258562 -1.93441e-06)
(0 -0.000288911 -2.34192e-06)
(0 -0.000375893 -3.07004e-06)
(0 -0.00030557 -2.35977e-06)
(0 -0.000335867 -2.56858e-06)
(0 -0.000227425 -1.71931e-06)
(0 -0.000211789 -1.62925e-06)
(0 -0.000205746 -1.60699e-06)
(0 -0.000218342 -1.65903e-06)
(0 -0.000222672 -1.78387e-06)
(0 -0.000216595 -1.82691e-06)
(0 -0.000200839 -1.69656e-06)
(0 -0.000287351 -2.4589e-06)
(0 -0.000174219 -1.53882e-06)
(0 -0.000193102 -1.67803e-06)
(0 -0.000196724 -1.84559e-06)
(0 -0.000239093 -2.2827e-06)
(0 -0.000248137 -2.49121e-06)
(0 -0.000171559 -1.64512e-06)
(0 -0.000233191 -2.35363e-06)
(0 -0.000169204 -1.65625e-06)
(0 -0.000148278 -1.46565e-06)
(0 -0.000136394 -1.34262e-06)
(0 -0.000125312 -1.34088e-06)
(0 -0.000144382 -1.62258e-06)
(0 -0.000120088 -1.34625e-06)
(0 -0.000139287 -1.64782e-06)
(0 -0.000120379 -1.42504e-06)
(0 -0.000109331 -1.31798e-06)
(0 -0.000120606 -1.5164e-06)
(0 -0.000146087 -2.04262e-06)
(0 -9.41593e-05 -1.22961e-06)
(0 -9.77216e-05 -1.32683e-06)
(0 -9.19222e-05 -1.3291e-06)
(0 -8.60407e-05 -1.33388e-06)
(0 -8.01241e-05 -1.27283e-06)
(0 -7.42829e-05 -1.13396e-06)
(0 -6.19315e-05 -9.72761e-07)
(0 -5.62515e-05 -9.14168e-07)
(0 -4.60188e-05 -7.76052e-07)
(0 -4.9118e-05 -9.98539e-07)
(0 -5.48309e-05 -1.24738e-06)
(0 -3.59765e-05 -7.66045e-07)
(0 -3.36016e-05 -7.19281e-07)
(0 -2.0837e-05 -5.00759e-07)
(0 -1.84973e-05 -5.20317e-07)
(0 -1.11265e-05 -4.86053e-07)
(0 -5.52045e-06 -2.65433e-07)
(0 -0.000492598 -1.34513e-05)
(0 -0.000489117 -8.31985e-06)
(0 -0.00053697 -6.08199e-06)
(0 -0.000634298 -4.98432e-06)
(0 -0.000673929 -3.76333e-06)
(0 -0.000559984 -2.2526e-06)
(0 -0.000670557 -1.95776e-06)
(0 -0.000590748 -1.2569e-06)
(0 -0.000417971 -6.49397e-07)
(0 -0.00055683 -6.32278e-07)
(0 -0.00045531 -3.77813e-07)
(0 -0.000500618 -3.0326e-07)
(0 -0.000500455 -2.20794e-07)
(0 -0.000588632 -1.88255e-07)
(0 -0.000555835 -1.27706e-07)
(0 -0.000454719 -7.37431e-08)
(0 -0.000588409 -6.49963e-08)
(0 -0.000555689 -3.8654e-08)
(0 -0.000526425 -1.86742e-08)
(0 -0.000416748 -2.03036e-09)
(0 -0.00043487 1.09705e-08)
(0 -0.000555682 3.20889e-08)
(0 -0.00052646 5.04511e-08)
(0 -0.0006669 9.54563e-08)
(0 -0.000500229 1.02126e-07)
(0 -0.000588594 1.67544e-07)
(0 -0.000476581 1.86862e-07)
(0 -0.000476719 2.55663e-07)
(0 -0.000435438 3.1797e-07)
(0 -0.000477165 4.72855e-07)
(0 -0.000417824 5.60325e-07)
(0 -0.000528298 9.5645e-07)
(0 -0.000628187 1.53247e-06)
(0 -0.000479474 1.57485e-06)
(0 -0.000531213 2.35227e-06)
(0 -0.00044023 2.64139e-06)
(0 -0.000508413 4.18024e-06)
(0 -0.000511229 5.88744e-06)
(0 -0.000514718 8.65525e-06)
(0 -0.000545482 1.44889e-05)
(0 -0.000644472 2.64163e-05)
(0 -0.000542136 3.80177e-06)
(0 -0.000364829 -3.36369e-05)
(0 -0.000368017 -4.00464e-05)
(0 -0.000312874 -2.51373e-05)
(0 -0.000374793 -2.12134e-05)
(0 -0.000283602 -1.27312e-05)
(0 -0.000355177 -1.33871e-05)
(0 -0.000272782 -8.85308e-06)
(0 -0.000276975 -8.06562e-06)
(0 -0.000254484 -6.70167e-06)
(0 -0.0002912 -7.58211e-06)
(0 -0.00028374 -7.37589e-06)
(0 -0.000194888 -5.14795e-06)
(0 -0.00020655 -5.49702e-06)
(0 -0.000277474 -7.31363e-06)
(0 -0.000289685 -7.54798e-06)
(0 -0.000211831 -5.33017e-06)
(0 -0.000179014 -4.49969e-06)
(0 -0.000166452 -4.26777e-06)
(0 -0.000243764 -6.26022e-06)
(0 -0.000211447 -5.64187e-06)
(0 -0.000160679 -4.35429e-06)
(0 -0.000170945 -4.70325e-06)
(0 -0.000233789 -6.58352e-06)
(0 -0.000141582 -4.06234e-06)
(0 -0.000220761 -6.38775e-06)
(0 -0.000139478 -4.12125e-06)
(0 -0.000183565 -5.60568e-06)
(0 -0.000137349 -4.3588e-06)
(0 -0.000195942 -6.28614e-06)
(0 -0.000167899 -5.51754e-06)
(0 -0.000184962 -5.97627e-06)
(0 -0.000158156 -5.10415e-06)
(0 -0.000173957 -5.45269e-06)
(0 -0.000104384 -3.30573e-06)
(0 -9.98852e-05 -3.29522e-06)
(0 -0.000104364 -3.49796e-06)
(0 -9.97793e-05 -3.55922e-06)
(0 -9.98376e-05 -3.60197e-06)
(0 -0.000105434 -3.99408e-06)
(0 -0.00012829 -5.01567e-06)
(0 -8.29178e-05 -3.49682e-06)
(0 -0.000108653 -4.48183e-06)
(0 -9.72863e-05 -3.98556e-06)
(0 -8.22356e-05 -3.50259e-06)
(0 -6.05218e-05 -2.6604e-06)
(0 -5.5708e-05 -2.644e-06)
(0 -7.31794e-05 -3.56696e-06)
(0 -6.03713e-05 -2.96306e-06)
(0 -5.51366e-05 -2.77671e-06)
(0 -6.41328e-05 -3.38394e-06)
(0 -4.54665e-05 -2.57634e-06)
(0 -3.2465e-05 -2.01954e-06)
(0 -3.36392e-05 -2.19272e-06)
(0 -3.66771e-05 -2.38247e-06)
(0 -2.21227e-05 -1.39256e-06)
(0 -2.33024e-05 -1.64625e-06)
(0 -8.97705e-06 -8.81446e-07)
(0 -5.42596e-06 -7.43749e-07)
(0 -0.000444231 -1.43055e-05)
(0 -0.000599173 -1.36843e-05)
(0 -0.000676485 -1.10224e-05)
(0 -0.000532227 -6.24186e-06)
(0 -0.000593178 -5.04206e-06)
(0 -0.000457375 -2.83044e-06)
(0 -0.000478376 -2.16102e-06)
(0 -0.000436249 -1.44062e-06)
(0 -0.000589692 -1.42441e-06)
(0 -0.000667878 -1.1801e-06)
(0 -0.000476826 -6.15992e-07)
(0 -0.000625613 -5.90159e-07)
(0 -0.000500361 -3.43807e-07)
(0 -0.000500267 -2.49196e-07)
(0 -0.00058847 -2.10588e-07)
(0 -0.000666868 -1.68448e-07)
(0 -0.000416765 -7.17036e-08)
(0 -0.000416746 -4.51495e-08)
(0 -0.00045462 -2.51122e-08)
(0 -0.000526397 -3.97955e-09)
(0 -0.0006251 2.45949e-08)
(0 -0.000434861 3.91557e-08)
(0 -0.000526431 7.86697e-08)
(0 -0.000500139 1.11662e-07)
(0 -0.000454711 1.44856e-07)
(0 -0.000625304 2.77875e-07)
(0 -0.000526661 3.22576e-07)
(0 -0.000476614 3.99596e-07)
(0 -0.000526951 6.02088e-07)
(0 -0.000435497 6.75891e-07)
(0 -0.000626397 1.31672e-06)
(0 -0.000477638 1.35609e-06)
(0 -0.00045642 1.74557e-06)
(0 -0.000502789 2.58426e-06)
(0 -0.000530269 3.65802e-06)
(0 -0.00063128 5.84759e-06)
(0 -0.000506654 6.31867e-06)
(0 -0.000635819 1.07071e-05)
(0 -0.000600896 1.36148e-05)
(0 -0.000682166 2.02883e-05)
(0 -0.000629118 1.39208e-05)
(0 -0.000425655 -2.34368e-05)
(0 -0.000451739 -4.03119e-05)
(0 -0.000478192 -3.83307e-05)
(0 -0.000343912 -2.27332e-05)
(0 -0.000316523 -1.69543e-05)
(0 -0.000256379 -1.18868e-05)
(0 -0.000279681 -1.1383e-05)
(0 -0.000337061 -1.20107e-05)
(0 -0.000215408 -7.04654e-06)
(0 -0.000334594 -1.03357e-05)
(0 -0.000305598 -9.20495e-06)
(0 -0.000215469 -6.34016e-06)
(0 -0.000208954 -6.01332e-06)
(0 -0.000223637 -6.4445e-06)
(0 -0.000217837 -6.52889e-06)
(0 -0.00021224 -6.33875e-06)
(0 -0.00023021 -6.62327e-06)
(0 -0.000212764 -5.983e-06)
(0 -0.000178705 -5.0602e-06)
(0 -0.00024015 -7.10687e-06)
(0 -0.000178153 -5.3852e-06)
(0 -0.000202614 -6.10029e-06)
(0 -0.000197588 -6.0035e-06)
(0 -0.000192794 -5.88781e-06)
(0 -0.000140239 -4.25947e-06)
(0 -0.000148359 -4.71868e-06)
(0 -0.000176494 -5.61387e-06)
(0 -0.000193629 -6.48934e-06)
(0 -0.000177483 -5.9953e-06)
(0 -0.000132785 -4.58533e-06)
(0 -0.000134611 -4.75819e-06)
(0 -0.000130217 -4.55898e-06)
(0 -0.000109657 -3.9115e-06)
(0 -0.000133805 -4.73663e-06)
(0 -0.000136571 -4.67368e-06)
(0 -0.000124732 -4.34527e-06)
(0 -0.000143199 -5.07797e-06)
(0 -0.00010464 -3.85403e-06)
(0 -0.000141434 -5.30286e-06)
(0 -0.000101633 -3.97353e-06)
(0 -0.000122251 -4.89096e-06)
(0 -7.72923e-05 -3.12387e-06)
(0 -7.97992e-05 -3.30826e-06)
(0 -9.8611e-05 -3.97566e-06)
(0 -7.548e-05 -3.10256e-06)
(0 -8.85084e-05 -3.55829e-06)
(0 -6.10684e-05 -2.54514e-06)
(0 -5.40219e-05 -2.39323e-06)
(0 -5.4299e-05 -2.44871e-06)
(0 -5.80845e-05 -2.72563e-06)
(0 -4.3384e-05 -2.15387e-06)
(0 -4.04799e-05 -2.13333e-06)
(0 -3.7362e-05 -2.08572e-06)
(0 -2.77162e-05 -1.613e-06)
(0 -2.24951e-05 -1.41251e-06)
(0 -2.77668e-05 -1.77191e-06)
(0 -2.20954e-05 -1.55964e-06)
(0 -9.22273e-06 -7.43622e-07)
(0 -5.36609e-06 -7.58985e-07)
(0 -0.000481972 -1.64393e-05)
(0 -0.000531987 -1.37606e-05)
(0 -0.000593435 -1.14445e-05)
(0 -0.000437789 -6.24267e-06)
(0 -0.000456937 -4.7975e-06)
(0 -0.000627462 -4.83971e-06)
(0 -0.000436053 -2.46761e-06)
(0 -0.00052745 -2.18806e-06)
(0 -0.000527151 -1.60203e-06)
(0 -0.000556203 -1.23747e-06)
(0 -0.000667238 -1.08582e-06)
(0 -0.000454832 -5.4059e-07)
(0 -0.000476412 -4.12487e-07)
(0 -0.00041681 -2.61632e-07)
(0 -0.000500128 -2.25533e-07)
(0 -0.000555664 -1.7687e-07)
(0 -0.000666768 -1.44553e-07)
(0 -0.000666749 -9.10149e-08)
(0 -0.000454594 -3.16302e-08)
(0 -0.000526369 -4.98777e-09)
(0 -0.000625065 3.10491e-08)
(0 -0.000500058 5.68238e-08)
(0 -0.000588319 1.10971e-07)
(0 -0.000454627 1.28161e-07)
(0 -0.00052644 2.1187e-07)
(0 -0.000555731 3.1222e-07)
(0 -0.000476394 3.69247e-07)
(0 -0.000625362 6.6428e-07)
(0 -0.000476567 6.90875e-07)
(0 -0.000417118 8.22702e-07)
(0 -0.00045522 1.21812e-06)
(0 -0.000417513 1.51122e-06)
(0 -0.000668519 3.26185e-06)
(0 -0.000418244 2.74018e-06)
(0 -0.000628198 5.50434e-06)
(0 -0.000559357 6.53431e-06)
(0 -0.000420438 6.54225e-06)
(0 -0.000505975 1.04841e-05)
(0 -0.000423276 1.14301e-05)
(0 -0.000635839 1.84975e-05)
(0 -0.000425575 -5.44993e-06)
(0 -0.000377089 -3.28831e-05)
(0 -0.000427509 -3.73889e-05)
(0 -0.000399768 -3.07993e-05)
(0 -0.000327025 -2.07728e-05)
(0 -0.000410625 -2.12428e-05)
(0 -0.000251553 -1.13421e-05)
(0 -0.000275181 -1.14576e-05)
(0 -0.000294412 -1.11357e-05)
(0 -0.000321063 -1.0895e-05)
(0 -0.000293432 -9.54056e-06)
(0 -0.000254982 -7.89006e-06)
(0 -0.000277499 -8.35595e-06)
(0 -0.00024158 -6.95804e-06)
(0 -0.000280236 -8.0439e-06)
(0 -0.00018944 -5.56728e-06)
(0 -0.000192465 -5.68671e-06)
(0 -0.000217291 -6.36488e-06)
(0 -0.000223953 -6.46246e-06)
(0 -0.000246409 -7.15198e-06)
(0 -0.00018291 -5.40706e-06)
(0 -0.000155389 -4.64901e-06)
(0 -0.0001647 -5.07523e-06)
(0 -0.000152922 -4.71962e-06)
(0 -0.000201794 -6.35915e-06)
(0 -0.0002235 -7.018e-06)
(0 -0.00016297 -5.19155e-06)
(0 -0.000198737 -6.42609e-06)
(0 -0.000133996 -4.55059e-06)
(0 -0.000142169 -4.95777e-06)
(0 -0.000161136 -5.57796e-06)
(0 -0.000116592 -4.07399e-06)
(0 -0.000159768 -5.52875e-06)
(0 -0.000108987 -3.79646e-06)
(0 -0.000119969 -4.33316e-06)
(0 -0.000135268 -4.85683e-06)
(0 -0.000111509 -4.08942e-06)
(0 -0.00012528 -4.83715e-06)
(0 -9.8039e-05 -3.79804e-06)
(0 -0.000114943 -4.74889e-06)
(0 -9.39566e-05 -3.94805e-06)
(0 -8.93489e-05 -3.80789e-06)
(0 -8.07219e-05 -3.4326e-06)
(0 -7.25479e-05 -3.24969e-06)
(0 -0.000105876 -4.78789e-06)
(0 -7.46778e-05 -3.46471e-06)
(0 -8.80253e-05 -4.16037e-06)
(0 -7.7685e-05 -3.70716e-06)
(0 -6.44357e-05 -3.10311e-06)
(0 -7.1133e-05 -3.51854e-06)
(0 -5.81479e-05 -2.98896e-06)
(0 -5.63169e-05 -2.95229e-06)
(0 -4.52978e-05 -2.46655e-06)
(0 -3.09029e-05 -1.76021e-06)
(0 -2.99242e-05 -1.74608e-06)
(0 -2.75109e-05 -1.73931e-06)
(0 -2.67641e-05 -1.97387e-06)
(0 -1.67733e-05 -1.47695e-06)
(0 -1.33351e-05 -1.22066e-06)
(0 -5.32705e-06 -7.42317e-07)
(0 -0.000669279 -2.33902e-05)
(0 -0.000418136 -1.13911e-05)
(0 -0.000589965 -1.22269e-05)
(0 -0.000435795 -6.76649e-06)
(0 -0.000417412 -4.81036e-06)
(0 -0.000435368 -3.70311e-06)
(0 -0.000526844 -3.29635e-06)
(0 -0.000435105 -1.99848e-06)
(0 -0.000667031 -2.24609e-06)
(0 -0.000454728 -1.12139e-06)
(0 -0.000588409 -1.06152e-06)
(0 -0.000588364 -7.75285e-07)
(0 -0.000416734 -4.00027e-07)
(0 -0.000416717 -2.89995e-07)
(0 -0.000476233 -2.38086e-07)
(0 -0.000454577 -1.60407e-07)
(0 -0.000526344 -1.26496e-07)
(0 -0.000666696 -1.00876e-07)
(0 -0.000625024 -4.81877e-08)
(0 -0.000588256 -6.14017e-09)
(0 -0.000416682 2.29963e-08)
(0 -0.000416684 5.25842e-08)
(0 -0.000500025 1.04764e-07)
(0 -0.000454575 1.42405e-07)
(0 -0.000416702 1.86492e-07)
(0 -0.000500057 3.12705e-07)
(0 -0.00043485 3.75624e-07)
(0 -0.000416755 4.9416e-07)
(0 -0.000625185 1.01378e-06)
(0 -0.000434963 9.62035e-07)
(0 -0.000500292 1.50567e-06)
(0 -0.000454921 1.85783e-06)
(0 -0.000455079 2.51249e-06)
(0 -0.00062604 4.6484e-06)
(0 -0.000589604 5.84669e-06)
(0 -0.000477692 6.27742e-06)
(0 -0.000478144 8.30392e-06)
(0 -0.000457081 1.07306e-05)
(0 -0.000481757 1.65796e-05)
(0 -0.000422851 1.21032e-05)
(0 -0.00066115 -3.48491e-05)
(0 -0.000463811 -3.9664e-05)
(0 -0.000408552 -2.97255e-05)
(0 -0.000359617 -2.36606e-05)
(0 -0.000311424 -1.72099e-05)
(0 -0.000385845 -1.86406e-05)
(0 -0.000308819 -1.25472e-05)
(0 -0.000242231 -9.13156e-06)
(0 -0.000242596 -8.60301e-06)
(0 -0.000245217 -8.21908e-06)
(0 -0.00024946 -8.01831e-06)
(0 -0.000304002 -9.31238e-06)
(0 -0.000204969 -6.25273e-06)
(0 -0.000306732 -9.11638e-06)
(0 -0.000300134 -8.71004e-06)
(0 -0.000208705 -5.88792e-06)
(0 -0.000203006 -5.78339e-06)
(0 -0.00021872 -6.3248e-06)
(0 -0.000238898 -6.87957e-06)
(0 -0.000197935 -5.84005e-06)
(0 -0.000214624 -6.19021e-06)
(0 -0.000209467 -6.12191e-06)
(0 -0.000159157 -4.73225e-06)
(0 -0.000238433 -7.26245e-06)
(0 -0.000174188 -5.36637e-06)
(0 -0.00015379 -4.84563e-06)
(0 -0.000164425 -5.21216e-06)
(0 -0.000200634 -6.40052e-06)
(0 -0.000156054 -5.12048e-06)
(0 -0.000125667 -4.19474e-06)
(0 -0.000132598 -4.457e-06)
(0 -0.00013436 -4.60386e-06)
(0 -0.000171347 -5.98822e-06)
(0 -0.00016654 -5.71727e-06)
(0 -0.000122424 -4.29894e-06)
(0 -0.000166298 -5.95038e-06)
(0 -0.000161524 -5.75414e-06)
(0 -9.67627e-05 -3.53215e-06)
(0 -0.000140237 -5.15441e-06)
(0 -8.93353e-05 -3.42937e-06)
(0 -8.49664e-05 -3.3153e-06)
(0 -9.7376e-05 -3.83322e-06)
(0 -0.000103603 -4.08153e-06)
(0 -7.34227e-05 -2.95087e-06)
(0 -9.31553e-05 -3.932e-06)
(0 -7.18621e-05 -3.07512e-06)
(0 -7.07022e-05 -3.17259e-06)
(0 -5.73451e-05 -2.69552e-06)
(0 -6.38956e-05 -3.08188e-06)
(0 -5.90791e-05 -2.9138e-06)
(0 -5.1507e-05 -2.55442e-06)
(0 -4.43609e-05 -2.29814e-06)
(0 -3.74675e-05 -2.10073e-06)
(0 -3.39133e-05 -1.98805e-06)
(0 -3.80674e-05 -2.45934e-06)
(0 -3.73599e-05 -2.45416e-06)
(0 -2.73896e-05 -2.048e-06)
(0 -1.55301e-05 -1.45403e-06)
(0 -1.22986e-05 -1.41895e-06)
(0 -5.43194e-06 -9.12932e-07)
(0 -0.000498043 -1.75427e-05)
(0 -0.000452944 -1.24267e-05)
(0 -0.000498532 -1.03929e-05)
(0 -0.000525092 -8.19101e-06)
(0 -0.000587186 -6.79109e-06)
(0 -0.000587445 -5.01009e-06)
(0 -0.000475715 -2.98241e-06)
(0 -0.000416359 -1.91521e-06)
(0 -0.000555254 -1.87174e-06)
(0 -0.000624751 -1.54191e-06)
(0 -0.000454412 -8.20269e-07)
(0 -0.000499893 -6.58992e-07)
(0 -0.000555468 -5.33369e-07)
(0 -0.000588167 -4.09403e-07)
(0 -0.000588185 -2.94105e-07)
(0 -0.00062496 -2.20555e-07)
(0 -0.000555528 -1.33517e-07)
(0 -0.000624975 -9.45587e-08)
(0 -0.000624979 -4.81637e-08)
(0 -0.000526299 -5.45664e-09)
(0 -0.000434768 2.40526e-08)
(0 -0.000624977 7.90258e-08)
(0 -0.000476169 9.99845e-08)
(0 -0.000666628 2.09399e-07)
(0 -0.000454511 2.04119e-07)
(0 -0.0006666 4.18755e-07)
(0 -0.000499933 4.34461e-07)
(0 -0.00058813 7.03005e-07)
(0 -0.000416569 6.82784e-07)
(0 -0.000624808 1.40178e-06)
(0 -0.000454368 1.39344e-06)
(0 -0.000526061 2.20167e-06)
(0 -0.000475918 2.71071e-06)
(0 -0.00043451 3.35064e-06)
(0 -0.000666247 6.887e-06)
(0 -0.000555191 7.55055e-06)
(0 -0.000554792 9.58972e-06)
(0 -0.000451772 9.33274e-06)
(0 -0.000421928 9.40698e-06)
(0 -0.000614343 5.23055e-06)
(0 -0.000432827 -3.05754e-05)
(0 -0.00044472 -4.29697e-05)
(0 -0.000456308 -3.76848e-05)
(0 -0.00029987 -2.0793e-05)
(0 -0.000323085 -1.83823e-05)
(0 -0.000290813 -1.51002e-05)
(0 -0.000373414 -1.65611e-05)
(0 -0.000361486 -1.42036e-05)
(0 -0.000350907 -1.25051e-05)
(0 -0.000341576 -1.13648e-05)
(0 -0.000276793 -8.58905e-06)
(0 -0.00030392 -9.05233e-06)
(0 -0.00021471 -6.18697e-06)
(0 -0.000218582 -6.42545e-06)
(0 -0.000235526 -6.71459e-06)
(0 -0.00027355 -7.65066e-06)
(0 -0.000237431 -6.58053e-06)
(0 -0.000219384 -6.18555e-06)
(0 -0.000272156 -7.62605e-06)
(0 -0.000172706 -4.82265e-06)
(0 -0.000242833 -6.7157e-06)
(0 -0.000172006 -4.80572e-06)
(0 -0.000194199 -5.47573e-06)
(0 -0.00014925 -4.35756e-06)
(0 -0.000183751 -5.29662e-06)
(0 -0.000154313 -4.4952e-06)
(0 -0.000143197 -4.25603e-06)
(0 -0.000214627 -6.63467e-06)
(0 -0.000130002 -4.03977e-06)
(0 -0.000137274 -4.32353e-06)
(0 -0.000183824 -5.90476e-06)
(0 -0.000123684 -3.97028e-06)
(0 -0.000119349 -4.016e-06)
(0 -0.000139889 -4.82638e-06)
(0 -0.000135348 -4.70404e-06)
(0 -0.000118069 -4.17379e-06)
(0 -0.000119541 -4.22799e-06)
(0 -0.00012129 -4.30832e-06)
(0 -0.000116795 -4.18722e-06)
(0 -9.22242e-05 -3.27474e-06)
(0 -8.78206e-05 -3.18085e-06)
(0 -9.16515e-05 -3.45937e-06)
(0 -9.66212e-05 -3.81626e-06)
(0 -0.000103157 -4.02514e-06)
(0 -9.27212e-05 -3.79413e-06)
(0 -9.94236e-05 -4.06928e-06)
(0 -8.3737e-05 -3.43036e-06)
(0 -6.11158e-05 -2.47895e-06)
(0 -5.40311e-05 -2.31249e-06)
(0 -5.17159e-05 -2.28318e-06)
(0 -6.10894e-05 -2.76781e-06)
(0 -5.97629e-05 -2.69707e-06)
(0 -4.14249e-05 -1.97824e-06)
(0 -4.53744e-05 -2.32264e-06)
(0 -2.91532e-05 -1.57101e-06)
(0 -3.8091e-05 -2.20986e-06)
(0 -3.27213e-05 -2.08531e-06)
(0 -1.66961e-05 -1.07871e-06)
(0 -1.09346e-05 -8.68439e-07)
(0 -5.01257e-06 -5.18925e-07)
(0 -0.000548812 -1.91792e-05)
(0 -0.000659485 -1.743e-05)
(0 -0.000619478 -1.21598e-05)
(0 -0.000451404 -6.52643e-06)
(0 -0.000523549 -5.555e-06)
(0 -0.000474317 -3.6874e-06)
(0 -0.000433514 -2.46761e-06)
(0 -0.000433847 -1.80753e-06)
(0 -0.000665612 -2.02923e-06)
(0 -0.000525704 -1.17234e-06)
(0 -0.000587734 -9.58077e-07)
(0 -0.000416406 -4.95541e-07)
(0 -0.000475971 -4.12486e-07)
(0 -0.000454391 -2.85415e-07)
(0 -0.000434672 -1.96112e-07)
(0 -0.000434699 -1.38413e-07)
(0 -0.000555473 -1.20445e-07)
(0 -0.000416617 -5.68617e-08)
(0 -0.000588175 -4.08742e-08)
(0 -0.000454502 -4.22356e-09)
(0 -0.000588177 2.94229e-08)
(0 -0.000499944 5.71368e-08)
(0 -0.000526244 9.98957e-08)
(0 -0.000499913 1.42035e-07)
(0 -0.0005881 2.39082e-07)
(0 -0.000666462 3.79421e-07)
(0 -0.000499794 3.94255e-07)
(0 -0.000555246 6.038e-07)
(0 -0.000666165 9.9648e-07)
(0 -0.000499493 1.02724e-06)
(0 -0.000453929 1.28405e-06)
(0 -0.000623875 2.4296e-06)
(0 -0.000498826 2.67644e-06)
(0 -0.000553904 4.09193e-06)
(0 -0.000524443 5.30797e-06)
(0 -0.00043314 5.90843e-06)
(0 -0.000415484 7.28531e-06)
(0 -0.000455044 8.87099e-06)
(0 -0.000674538 7.3737e-06)
(0 -0.000527789 -1.11667e-05)
(0 -0.000653333 -3.72023e-05)
(0 -0.000491713 -3.22865e-05)
(0 -0.000362206 -2.47435e-05)
(0 -0.000277318 -1.607e-05)
(0 -0.000363166 -1.94846e-05)
(0 -0.000263458 -1.29533e-05)
(0 -0.000275937 -1.23516e-05)
(0 -0.0002198 -8.88896e-06)
(0 -0.000254639 -9.70565e-06)
(0 -0.000214035 -7.51099e-06)
(0 -0.000299969 -9.99254e-06)
(0 -0.000312929 -9.91628e-06)
(0 -0.000306128 -9.2982e-06)
(0 -0.000193933 -5.73037e-06)
(0 -0.000272482 -7.89986e-06)
(0 -0.000202381 -5.89509e-06)
(0 -0.000230536 -6.70424e-06)
(0 -0.000168065 -4.76454e-06)
(0 -0.000196578 -5.68832e-06)
(0 -0.000201808 -5.87571e-06)
(0 -0.000250104 -7.32029e-06)
(0 -0.000203513 -5.83584e-06)
(0 -0.000187887 -5.52873e-06)
(0 -0.000157587 -4.5782e-06)
(0 -0.000225765 -6.76304e-06)
(0 -0.000183424 -5.38523e-06)
(0 -0.000201456 -5.9485e-06)
(0 -0.000156721 -4.90531e-06)
(0 -0.000169383 -5.28584e-06)
(0 -0.000147911 -4.66313e-06)
(0 -0.000124245 -4.05269e-06)
(0 -0.000185427 -6.00937e-06)
(0 -0.000150002 -4.9708e-06)
(0 -0.000124197 -4.24048e-06)
(0 -0.000104444 -3.55467e-06)
(0 -0.000120795 -4.24863e-06)
(0 -0.000129687 -4.52115e-06)
(0 -9.30903e-05 -3.30577e-06)
(0 -0.000101873 -3.6737e-06)
(0 -0.000114104 -4.18656e-06)
(0 -0.000123367 -4.68782e-06)
(0 -0.000111347 -4.23645e-06)
(0 -8.15653e-05 -3.32002e-06)
(0 -0.000100613 -4.14825e-06)
(0 -7.69919e-05 -3.19465e-06)
(0 -7.23752e-05 -3.13977e-06)
(0 -6.76924e-05 -2.90795e-06)
(0 -7.86168e-05 -3.26142e-06)
(0 -5.89595e-05 -2.47466e-06)
(0 -6.01773e-05 -2.67202e-06)
(0 -5.21934e-05 -2.56419e-06)
(0 -6.40553e-05 -3.29835e-06)
(0 -5.13385e-05 -2.61087e-06)
(0 -3.29726e-05 -1.80043e-06)
(0 -4.15918e-05 -2.37497e-06)
(0 -3.88133e-05 -2.41345e-06)
(0 -1.90977e-05 -1.40824e-06)
(0 -1.9196e-05 -1.46773e-06)
(0 -9.81015e-06 -8.96765e-07)
(0 -5.63112e-06 -9.00116e-07)
(0 -0.000514881 -1.73172e-05)
(0 -0.000654273 -1.55088e-05)
(0 -0.000518567 -8.70187e-06)
(0 -0.000581631 -6.97619e-06)
(0 -0.000472191 -4.08167e-06)
(0 -0.000523041 -3.27735e-06)
(0 -0.000622134 -2.83633e-06)
(0 -0.000415263 -1.38059e-06)
(0 -0.000433707 -1.05282e-06)
(0 -0.000453721 -8.04617e-07)
(0 -0.000434204 -5.62427e-07)
(0 -0.000555013 -5.24585e-07)
(0 -0.000555156 -3.82007e-07)
(0 -0.000454304 -2.26539e-07)
(0 -0.000434611 -1.55648e-07)
(0 -0.000476048 -1.20311e-07)
(0 -0.000555427 -9.55848e-08)
(0 -0.000526217 -5.69958e-08)
(0 -0.000624899 -3.4452e-08)
(0 -0.000624905 -4.5831e-09)
(0 -0.000476116 1.89391e-08)
(0 -0.000476106 4.32531e-08)
(0 -0.000416577 6.2873e-08)
(0 -0.000416552 9.41416e-08)
(0 -0.000666426 2.15662e-07)
(0 -0.000666345 3.02294e-07)
(0 -0.000666232 4.19431e-07)
(0 -0.000587715 5.1119e-07)
(0 -0.000499399 5.99436e-07)
(0 -0.000554646 9.19697e-07)
(0 -0.00055432 1.27344e-06)
(0 -0.000474756 1.51835e-06)
(0 -0.000452705 2.03007e-06)
(0 -0.00062165 3.94836e-06)
(0 -0.000662098 6.03682e-06)
(0 -0.000583496 7.76275e-06)
(0 -0.000431608 8.50958e-06)
(0 -0.000435039 1.27194e-05)
(0 -0.000443222 1.37464e-05)
(0 -0.000591426 -2.63514e-05)
(0 -0.000472368 -4.06133e-05)
(0 -0.000537211 -3.66145e-05)
(0 -0.00030726 -1.69718e-05)
(0 -0.000370653 -1.60182e-05)
(0 -0.000267278 -1.09019e-05)
(0 -0.000239287 -9.39904e-06)
(0 -0.000226617 -8.53536e-06)
(0 -0.000308857 -1.11991e-05)
(0 -0.000210341 -7.2353e-06)
(0 -0.000327607 -1.08504e-05)
(0 -0.000227215 -7.14734e-06)
(0 -0.000258404 -7.97699e-06)
(0 -0.000196376 -5.91429e-06)
(0 -0.00023155 -6.71291e-06)
(0 -0.000238719 -6.72325e-06)
(0 -0.000209598 -5.87833e-06)
(0 -0.000169596 -4.84057e-06)
(0 -0.000265518 -7.30093e-06)
(0 -0.000260205 -7.45037e-06)
(0 -0.000181025 -5.25853e-06)
(0 -0.000185169 -5.35553e-06)
(0 -0.000212989 -6.0248e-06)
(0 -0.000146484 -4.19831e-06)
(0 -0.000214588 -6.15339e-06)
(0 -0.000138779 -4.08241e-06)
(0 -0.000180267 -5.26619e-06)
(0 -0.000211603 -6.26563e-06)
(0 -0.000154367 -4.7263e-06)
(0 -0.000135949 -4.17568e-06)
(0 -0.000152816 -4.78349e-06)
(0 -0.000140714 -4.44239e-06)
(0 -0.000143637 -4.66722e-06)
(0 -0.000125669 -4.10682e-06)
(0 -0.000105713 -3.47658e-06)
(0 -0.000153737 -5.0489e-06)
(0 -0.000102732 -3.53726e-06)
(0 -0.00015247 -5.41045e-06)
(0 -0.000129936 -4.49182e-06)
(0 -0.000142439 -5.02342e-06)
(0 -0.000121127 -4.43413e-06)
(0 -8.15282e-05 -3.07398e-06)
(0 -0.000125495 -4.71083e-06)
(0 -7.42613e-05 -2.83489e-06)
(0 -7.30321e-05 -2.86944e-06)
(0 -9.40254e-05 -3.77369e-06)
(0 -6.50971e-05 -2.69805e-06)
(0 -7.00599e-05 -2.96025e-06)
(0 -7.74681e-05 -3.31864e-06)
(0 -8.27643e-05 -3.45303e-06)
(0 -7.7805e-05 -3.35391e-06)
(0 -5.66838e-05 -2.60885e-06)
(0 -4.20953e-05 -2.07673e-06)
(0 -4.33403e-05 -2.1988e-06)
(0 -4.2905e-05 -2.28792e-06)
(0 -4.00301e-05 -2.37968e-06)
(0 -3.99031e-05 -2.37376e-06)
(0 -2.10217e-05 -1.21699e-06)
(0 -1.63739e-05 -1.09517e-06)
(0 -1.37608e-05 -1.11478e-06)
(0 -5.13373e-06 -6.31252e-07)
(0 -0.000536416 -1.56932e-05)
(0 -0.000486429 -8.73584e-06)
(0 -0.000466553 -5.50276e-06)
(0 -0.000656751 -5.31661e-06)
(0 -0.000449595 -2.56591e-06)
(0 -0.000450923 -1.84304e-06)
(0 -0.000584805 -1.72744e-06)
(0 -0.000524069 -1.1246e-06)
(0 -0.000586397 -9.16796e-07)
(0 -0.00066514 -7.58734e-07)
(0 -0.000434053 -3.61386e-07)
(0 -0.000554871 -3.36955e-07)
(0 -0.000587702 -2.59757e-07)
(0 -0.000555183 -1.77795e-07)
(0 -0.000555278 -1.27701e-07)
(0 -0.000588013 -9.54237e-08)
(0 -0.000499854 -5.52327e-08)
(0 -0.000416568 -2.89683e-08)
(0 -0.000499898 -1.7691e-08)
(0 -0.000454458 -2.13158e-09)
(0 -0.000666535 1.70472e-08)
(0 -0.000499888 2.91922e-08)
(0 -0.000526173 5.10563e-08)
(0 -0.000454388 6.60458e-08)
(0 -0.000454338 9.46126e-08)
(0 -0.000555216 1.62219e-07)
(0 -0.000587748 2.38596e-07)
(0 -0.000525723 2.95386e-07)
(0 -0.000416026 3.23452e-07)
(0 -0.000415789 4.48449e-07)
(0 -0.000586535 8.8227e-07)
(0 -0.000664017 1.40561e-06)
(0 -0.000585013 1.76814e-06)
(0 -0.000583787 2.57802e-06)
(0 -0.000659708 4.4145e-06)
(0 -0.000547614 5.87222e-06)
(0 -0.00044592 8.30576e-06)
(0 -0.000542496 1.88936e-05)
(0 -0.0003936 1.19963e-05)
(0 -0.000449972 -3.14781e-05)
(0 -0.000332239 -3.27374e-05)
(0 -0.000392245 -2.89366e-05)
(0 -0.000320259 -1.64978e-05)
(0 -0.000331852 -1.27831e-05)
(0 -0.000355867 -1.1717e-05)
(0 -0.000270786 -9.10246e-06)
(0 -0.000305999 -9.76517e-06)
(0 -0.000216673 -7.13298e-06)
(0 -0.000322662 -9.92451e-06)
(0 -0.000212694 -6.4036e-06)
(0 -0.000304535 -8.34818e-06)
(0 -0.000234373 -6.25269e-06)
(0 -0.000216695 -5.60769e-06)
(0 -0.000175061 -4.35229e-06)
(0 -0.000274289 -6.86968e-06)
(0 -0.000223533 -5.52827e-06)
(0 -0.000162757 -3.94013e-06)
(0 -0.00025516 -6.3419e-06)
(0 -0.000169542 -4.39796e-06)
(0 -0.000150814 -3.85663e-06)
(0 -0.000159993 -3.94246e-06)
(0 -0.000191093 -4.81636e-06)
(0 -0.000176612 -4.54578e-06)
(0 -0.000172112 -4.54582e-06)
(0 -0.000159162 -4.04073e-06)
(0 -0.000182874 -4.75138e-06)
(0 -0.000190144 -5.0453e-06)
(0 -0.000128292 -3.4494e-06)
(0 -0.000151014 -3.98806e-06)
(0 -0.00012638 -3.48828e-06)
(0 -0.000134801 -3.78382e-06)
(0 -0.000130667 -3.73166e-06)
(0 -0.000126541 -3.59114e-06)
(0 -0.000116436 -3.2247e-06)
(0 -0.000124585 -3.59894e-06)
(0 -0.000120445 -3.69372e-06)
(0 -9.53974e-05 -3.0947e-06)
(0 -0.000124663 -4.01594e-06)
(0 -0.000120494 -3.95895e-06)
(0 -9.34709e-05 -3.10527e-06)
(0 -8.12096e-05 -2.60197e-06)
(0 -9.39802e-05 -3.20575e-06)
(0 -8.49956e-05 -2.88099e-06)
(0 -9.55081e-05 -3.22981e-06)
(0 -7.69424e-05 -2.73064e-06)
(0 -7.25155e-05 -2.65736e-06)
(0 -6.46397e-05 -2.38269e-06)
(0 -6.01349e-05 -2.38056e-06)
(0 -7.92455e-05 -3.30563e-06)
(0 -7.44967e-05 -3.1274e-06)
(0 -5.4193e-05 -2.30955e-06)
(0 -4.67152e-05 -1.99202e-06)
(0 -4.99245e-05 -2.30289e-06)
(0 -4.49101e-05 -2.2626e-06)
(0 -2.70021e-05 -1.45077e-06)
(0 -2.4093e-05 -1.52286e-06)
(0 -2.92549e-05 -1.7859e-06)
(0 -2.34902e-05 -1.45892e-06)
(0 -1.20251e-05 -8.53586e-07)
(0 -5.11351e-06 -4.64796e-07)
(0 -0.000393964 -5.16025e-06)
(0 -0.000567481 -4.01168e-06)
(0 -0.0005421 -2.35722e-06)
(0 -0.000427331 -1.23451e-06)
(0 -0.000658454 -1.31926e-06)
(0 -0.000582982 -8.29482e-07)
(0 -0.000496748 -5.08509e-07)
(0 -0.000414688 -3.07636e-07)
(0 -0.000498264 -2.68938e-07)
(0 -0.000433678 -1.70655e-07)
(0 -0.000623836 -1.79093e-07)
(0 -0.000453924 -9.50231e-08)
(0 -0.000475712 -7.24689e-08)
(0 -0.000525925 -5.80447e-08)
(0 -0.000475927 -3.77188e-08)
(0 -0.000416492 -2.32912e-08)
(0 -0.000434642 -1.65497e-08)
(0 -0.000624836 -1.49724e-08)
(0 -0.000666516 -8.12689e-09)
(0 -0.000526204 -8.4881e-10)
(0 -0.000588106 5.18665e-09)
(0 -0.000476072 9.58565e-09)
(0 -0.000434651 1.45431e-08)
(0 -0.000499807 2.50554e-08)
(0 -0.000526049 3.77927e-08)
(0 -0.000434487 4.38153e-08)
(0 -0.000666053 9.33865e-08)
(0 -0.000453975 8.81883e-08)
(0 -0.000453765 1.22165e-07)
(0 -0.000433756 1.624e-07)
(0 -0.00058632 3.07388e-07)
(0 -0.000622176 4.62143e-07)
(0 -0.000522987 5.61143e-07)
(0 -0.000495512 7.92794e-07)
(0 -0.000411233 1.03297e-06)
(0 -0.000466806 1.99445e-06)
(0 -0.000605132 4.93255e-06)
(0 -0.000448959 7.64101e-06)
(0 -0.000445974 3.27325e-06)
(0 -0.000449353 -1.66594e-05)
(0 -0.000376307 -1.4034e-05)
(0 -0.000294659 -9.83896e-06)
(0 -0.000249084 -6.59949e-06)
(0 -0.000334541 -6.63913e-06)
(0 -0.000341273 -6.08281e-06)
(0 -0.00019921 -3.82447e-06)
(0 -0.000238884 -4.36521e-06)
(0 -0.000179271 -3.34059e-06)
(0 -0.000178363 -3.32022e-06)
(0 -0.000171088 -3.00767e-06)
(0 -0.000212483 -3.48044e-06)
(0 -0.000196003 -3.04431e-06)
(0 -0.00016389 -2.50147e-06)
(0 -0.000220299 -3.03259e-06)
(0 -0.000171744 -2.58567e-06)
(0 -0.000159024 -2.36433e-06)
(0 -0.000181169 -2.50343e-06)
(0 -0.000177272 -2.61562e-06)
(0 -0.00013473 -2.04466e-06)
(0 -0.000130531 -1.93315e-06)
(0 -0.000196385 -2.70202e-06)
(0 -0.000160327 -2.35435e-06)
(0 -0.00012185 -1.90829e-06)
(0 -0.000112999 -1.81283e-06)
(0 -0.00014711 -2.21407e-06)
(0 -0.000136105 -2.11526e-06)
(0 -0.000132874 -2.10735e-06)
(0 -0.000111333 -1.74838e-06)
(0 -0.000140732 -2.1641e-06)
(0 -0.00011063 -1.76969e-06)
(0 -0.000107209 -1.77231e-06)
(0 -0.000103819 -1.74299e-06)
(0 -0.000100393 -1.67544e-06)
(0 -0.000128466 -2.02247e-06)
(0 -0.000134068 -2.18075e-06)
(0 -8.41737e-05 -1.52862e-06)
(0 -8.06654e-05 -1.5065e-06)
(0 -8.93817e-05 -1.71215e-06)
(0 -8.18271e-05 -1.60763e-06)
(0 -7.12164e-05 -1.39081e-06)
(0 -0.000105728 -1.88433e-06)
(0 -7.59379e-05 -1.487e-06)
(0 -6.87256e-05 -1.37319e-06)
(0 -8.13199e-05 -1.60941e-06)
(0 -7.7856e-05 -1.55252e-06)