/*--------------------------------*- C++ -*----------------------------------*\
| =========                 |                                                 |
| \\      /  F ield         | foam-extend: Open Source CFD                    |
|  \\    /   O peration     | Version:     5.0                                |
|   \\  /    A nd           | Web:         http://www.foam-extend.org         |
|    \\/     M anipulation  |                                                 |
\*---------------------------------------------------------------------------*/
FoamFile
{
    version     2.0;
    format      ascii;
    class       volScalarField;
    location    "10";
    object      alpha.gas;
}
// * * * * * * * * * * * * * * * * * * * * * * * * * * * * * * * * * * * * * //

dimensions      [0 0 0 0 0 0 0];

internalField   nonuniform List<scalar> 
100
(
0.0928446
0.0916269
0.0903774
0.0890539
0.08794
0.0868138
0.0858054
0.0849523
0.0838282
0.0829402
0.0818465
0.0807775
0.0797774
0.0788395
0.0781331
0.0771864
0.0764456
0.0756241
0.0748318
0.0740738
0.0731456
0.0724234
0.0716988
0.0709428
0.0701313
0.0694617
0.0688022
0.0681741
0.0675032
0.0668383
0.0661391
0.0655349
0.0649401
0.0644081
0.0637709
0.0631602
0.0625415
0.0619564
0.0614719
0.0609139
0.0603822
0.0599117
0.0594258
0.0589001
0.0584218
0.0580262
0.0575827
0.0571141
0.0566576
0.0562644
0.0558397
0.0554346
0.0550467
0.0547476
0.0543864
0.053942
0.0535856
0.0531961
0.052851
0.0524671
0.0520791
0.0517985
0.0514592
0.051157
0.0507865
0.0505147
0.050196
0.0498511
0.0495846
0.0492752
0.0490241
0.048705
0.0484181
0.048159
0.0478773
0.0475553
0.0472915
0.0470907
0.0467983
0.0465365
0.0462921
0.0460565
0.0458621
0.045598
0.0452945
0.045059
0.0448561
0.0445923
0.0443477
0.0441348
0.0438624
0.0436495
0.0434351
0.0432272
0.0430164
0.0428034
0.0426599
0.0424867
0.0423679
0.0423069
)
;

boundaryField
{
    inlet
    {
        type            fixedValue;
        value           uniform 0.2;
    }
    outlet
    {
        type            zeroGradient;
    }
    yzfaces
    {
        type            empty;
    }
}


// ************************************************************************* //
