/*--------------------------------*- C++ -*----------------------------------*\
| =========                 |                                                 |
| \\      /  F ield         | foam-extend: Open Source CFD                    |
|  \\    /   O peration     | Version:     5.0                                |
|   \\  /    A nd           | Web:         http://www.foam-extend.org         |
|    \\/     M anipulation  |                                                 |
\*---------------------------------------------------------------------------*/
FoamFile
{
    version     2.0;
    format      ascii;
    class       volScalarField;
    location    "10";
    object      CO2.gas;
}
// * * * * * * * * * * * * * * * * * * * * * * * * * * * * * * * * * * * * * //

dimensions      [0 0 0 0 0 0 0];

internalField   nonuniform List<scalar> 
100
(
0.092861
0.0916385
0.0903884
0.088994
0.0879167
0.0867719
0.0857801
0.0850028
0.0838288
0.0830177
0.0818724
0.080783
0.0797651
0.0788258
0.078163
0.0771655
0.0764568
0.0756275
0.0748388
0.074096
0.0730837
0.0723903
0.0716929
0.070951
0.0701246
0.0694556
0.0688013
0.0681781
0.0675004
0.0668403
0.0661194
0.0655244
0.0649292
0.0644211
0.0637724
0.0631575
0.0625347
0.0619464
0.0614993
0.060923
0.0603771
0.0599137
0.0594247
0.0588863
0.0584207
0.0580315
0.0575841
0.0571066
0.0566474
0.0562611
0.0558272
0.0554268
0.0550376
0.0547574
0.0544078
0.0539419
0.0535897
0.0531936
0.0528509
0.0524629
0.0520713
0.0518117
0.0514583
0.0511697
0.0507743
0.0505235
0.0502055
0.0498538
0.0495842
0.0492693
0.049026
0.0486952
0.0484113
0.0481565
0.0478793
0.0475509
0.0472886
0.047103
0.0467974
0.0465364
0.0462892
0.0460519
0.0458685
0.0455991
0.0452853
0.0450598
0.044864
0.0445887
0.0443411
0.0441408
0.0438601
0.0436502
0.043439
0.0432248
0.0430124
0.0427967
0.0426636
0.0424843
0.0423653
0.0423072
)
;

boundaryField
{
    inlet
    {
        type            fixedValue;
        value           uniform 0.2;
    }
    outlet
    {
        type            zeroGradient;
    }
    yzfaces
    {
        type            empty;
    }
}


// ************************************************************************* //
