/*--------------------------------*- C++ -*----------------------------------*\
| =========                 |                                                 |
| \\      /  F ield         | foam-extend: Open Source CFD                    |
|  \\    /   O peration     | Version:     5.0                                |
|   \\  /    A nd           | Web:         http://www.foam-extend.org         |
|    \\/     M anipulation  |                                                 |
\*---------------------------------------------------------------------------*/
FoamFile
{
    version     2.0;
    format      ascii;
    class       surfaceScalarField;
    location    "10";
    object      phi;
}
// * * * * * * * * * * * * * * * * * * * * * * * * * * * * * * * * * * * * * //

dimensions      [0 3 -1 0 0 0 0];

internalField   nonuniform List<scalar> 
99
(
1.22197e-06
1.22315e-06
1.22444e-06
1.22733e-06
1.22747e-06
1.22881e-06
1.23308e-06
1.22606e-06
1.23424e-06
1.2222e-06
1.2222e-06
1.22324e-06
1.22251e-06
1.22065e-06
1.21741e-06
1.22493e-06
1.22346e-06
1.22573e-06
1.22366e-06
1.21668e-06
1.22472e-06
1.2284e-06
1.23114e-06
1.22492e-06
1.22806e-06
1.23139e-06
1.22951e-06
1.22852e-06
1.23208e-06
1.22983e-06
1.23162e-06
1.23305e-06
1.2363e-06
1.23592e-06
1.23552e-06
1.23566e-06
1.23409e-06
1.23682e-06
1.22819e-06
1.22875e-06
1.22954e-06
1.22852e-06
1.22863e-06
1.23209e-06
1.23306e-06
1.23062e-06
1.23284e-06
1.23248e-06
1.23564e-06
1.23406e-06
1.23783e-06
1.23966e-06
1.23917e-06
1.23931e-06
1.23401e-06
1.23675e-06
1.23589e-06
1.23385e-06
1.23577e-06
1.23757e-06
1.24082e-06
1.23374e-06
1.23629e-06
1.22987e-06
1.23582e-06
1.23302e-06
1.23043e-06
1.2318e-06
1.23e-06
1.23133e-06
1.22873e-06
1.23167e-06
1.23363e-06
1.2331e-06
1.23282e-06
1.23315e-06
1.23519e-06
1.23087e-06
1.23235e-06
1.23234e-06
1.23365e-06
1.23528e-06
1.23265e-06
1.2332e-06
1.2366e-06
1.23618e-06
1.23436e-06
1.23487e-06
1.23742e-06
1.23471e-06
1.23566e-06
1.23498e-06
1.23444e-06
1.23401e-06
1.23476e-06
1.23756e-06
1.23558e-06
1.23619e-06
1.23698e-06
)
;

boundaryField
{
    inlet
    {
        type            calculated;
        value           uniform -1.225e-06;
    }
    outlet
    {
        type            calculated;
        value           uniform 1.23736e-06;
    }
    yzfaces
    {
        type            empty;
    }
}


// ************************************************************************* //
