/*--------------------------------*- C++ -*----------------------------------*\
| =========                 |                                                 |
| \\      /  F ield         | foam-extend: Open Source CFD                    |
|  \\    /   O peration     | Version:     5.0                                |
|   \\  /    A nd           | Web:         http://www.foam-extend.org         |
|    \\/     M anipulation  |                                                 |
\*---------------------------------------------------------------------------*/
FoamFile
{
    version     2.0;
    format      ascii;
    class       volVectorField;
    location    "10";
    object      U.gas;
}
// * * * * * * * * * * * * * * * * * * * * * * * * * * * * * * * * * * * * * //

dimensions      [0 1 -1 0 0 0 0];

internalField   nonuniform List<vector> 
100
(
(0.0107518 0 0)
(0.0108784 0 0)
(0.0110386 0 0)
(0.0111942 0 0)
(0.0113158 0 0)
(0.0114449 0 0)
(0.0115624 0 0)
(0.0116662 0 0)
(0.0118176 0 0)
(0.0119076 0 0)
(0.0120133 0 0)
(0.0121481 0 0)
(0.0122682 0 0)
(0.0123478 0 0)
(0.0124185 0 0)
(0.0125795 0 0)
(0.0126988 0 0)
(0.0128286 0 0)
(0.0129377 0 0)
(0.0130214 0 0)
(0.0131648 0 0)
(0.0133082 0 0)
(0.0134607 0 0)
(0.0135741 0 0)
(0.0136769 0 0)
(0.0137997 0 0)
(0.0139114 0 0)
(0.0140012 0 0)
(0.0141351 0 0)
(0.014261 0 0)
(0.0143714 0 0)
(0.0144788 0 0)
(0.0146019 0 0)
(0.0147194 0 0)
(0.0148449 0 0)
(0.0149528 0 0)
(0.0150565 0 0)
(0.0151518 0 0)
(0.0152011 0 0)
(0.0152685 0 0)
(0.015363 0 0)
(0.0154428 0 0)
(0.0155422 0 0)
(0.0156682 0 0)
(0.015769 0 0)
(0.0158314 0 0)
(0.0159327 0 0)
(0.0160411 0 0)
(0.0161401 0 0)
(0.0162248 0 0)
(0.01633 0 0)
(0.0164437 0 0)
(0.0165153 0 0)
(0.0165696 0 0)
(0.0166413 0 0)
(0.0167208 0 0)
(0.0167954 0 0)
(0.0168596 0 0)
(0.0169297 0 0)
(0.0170497 0 0)
(0.017152 0 0)
(0.0171724 0 0)
(0.0172222 0 0)
(0.0172656 0 0)
(0.0173426 0 0)
(0.0174108 0 0)
(0.0174618 0 0)
(0.0175214 0 0)
(0.0175656 0 0)
(0.0176316 0 0)
(0.017677 0 0)
(0.017762 0 0)
(0.017849 0 0)
(0.017915 0 0)
(0.0179873 0 0)
(0.018062 0 0)
(0.0181117 0 0)
(0.0181425 0 0)
(0.0182072 0 0)
(0.0182658 0 0)
(0.018325 0 0)
(0.0183902 0 0)
(0.01843 0 0)
(0.0185028 0 0)
(0.0185991 0 0)
(0.0186494 0 0)
(0.0186845 0 0)
(0.0187505 0 0)
(0.0188163 0 0)
(0.0188682 0 0)
(0.0189244 0 0)
(0.0189573 0 0)
(0.0189982 0 0)
(0.0190363 0 0)
(0.0190869 0 0)
(0.01915 0 0)
(0.0191744 0 0)
(0.0192022 0 0)
(0.0192098 0 0)
(0.0192032 0 0)
)
;

boundaryField
{
    inlet
    {
        type            fixedValue;
        value           uniform (0.005 0 0);
    }
    outlet
    {
        type            zeroGradient;
    }
    yzfaces
    {
        type            empty;
    }
}


// ************************************************************************* //
