/*--------------------------------*- C++ -*----------------------------------*\
| =========                 |                                                 |
| \\      /  F ield         | foam-extend: Open Source CFD                    |
|  \\    /   O peration     | Version:     5.0                                |
|   \\  /    A nd           | Web:         http://www.foam-extend.org         |
|    \\/     M anipulation  |                                                 |
\*---------------------------------------------------------------------------*/
FoamFile
{
    version     2.0;
    format      ascii;
    class       volVectorField;
    location    "10";
    object      U.water;
}
// * * * * * * * * * * * * * * * * * * * * * * * * * * * * * * * * * * * * * //

dimensions      [0 1 -1 0 0 0 0];

internalField   nonuniform List<vector> 
100
(
(4.78319e-06 0 0)
(1.16124e-05 0 0)
(1.25956e-05 0 0)
(3.46124e-05 0 0)
(6.1104e-05 0 0)
(7.94314e-05 0 0)
(0.000111553 0 0)
(0.000110021 0 0)
(0.000116671 0 0)
(0.000128256 0 0)
(0.000122418 0 0)
(0.000141314 0 0)
(0.000162518 0 0)
(0.000195747 0 0)
(0.000203722 0 0)
(0.000210915 0 0)
(0.000231274 0 0)
(0.000237337 0 0)
(0.000252494 0 0)
(0.000250244 0 0)
(0.000264398 0 0)
(0.000293578 0 0)
(0.000302217 0 0)
(0.000305963 0 0)
(0.000323665 0 0)
(0.000347058 0 0)
(0.000360628 0 0)
(0.000369857 0 0)
(0.000378602 0 0)
(0.000388106 0 0)
(0.000404607 0 0)
(0.000424796 0 0)
(0.000441633 0 0)
(0.000450061 0 0)
(0.000455676 0 0)
(0.000469338 0 0)
(0.000483078 0 0)
(0.000505514 0 0)
(0.00051749 0 0)
(0.000523235 0 0)
(0.000542437 0 0)
(0.000557427 0 0)
(0.000564206 0 0)
(0.000577747 0 0)
(0.000599898 0 0)
(0.000612432 0 0)
(0.000618202 0 0)
(0.000630436 0 0)
(0.000648347 0 0)
(0.000662058 0 0)
(0.000673369 0 0)
(0.000689436 0 0)
(0.00070819 0 0)
(0.000719278 0 0)
(0.000717372 0 0)
(0.000729323 0 0)
(0.000746187 0 0)
(0.000757438 0 0)
(0.000769687 0 0)
(0.00077935 0 0)
(0.000799928 0 0)
(0.000813216 0 0)
(0.000820866 0 0)
(0.000828647 0 0)
(0.000841978 0 0)
(0.000857547 0 0)
(0.00086098 0 0)
(0.000875985 0 0)
(0.000889737 0 0)
(0.000901158 0 0)
(0.000910807 0 0)
(0.000919705 0 0)
(0.000936982 0 0)
(0.000948752 0 0)
(0.000955234 0 0)
(0.00096806 0 0)
(0.000988538 0 0)
(0.000995443 0 0)
(0.00100084 0 0)
(0.00101633 0 0)
(0.00102939 0 0)
(0.00104416 0 0)
(0.00105154 0 0)
(0.00105423 0 0)
(0.0010707 0 0)
(0.00109057 0 0)
(0.00109749 0 0)
(0.00110497 0 0)
(0.00112198 0 0)
(0.00113102 0 0)
(0.00114159 0 0)
(0.00115732 0 0)
(0.00116718 0 0)
(0.0011778 0 0)
(0.00118871 0 0)
(0.00120502 0 0)
(0.00121692 0 0)
(0.00122561 0 0)
(0.00124073 0 0)
(0.0012525 0 0)
)
;

boundaryField
{
    inlet
    {
        type            fixedValue;
        value           uniform (0 0 0);
    }
    outlet
    {
        type            zeroGradient;
    }
    yzfaces
    {
        type            empty;
    }
}


// ************************************************************************* //
