/*--------------------------------*- C++ -*----------------------------------*\
| =========                 |                                                 |
| \\      /  F ield         | foam-extend: Open Source CFD                    |
|  \\    /   O peration     | Version:     5.0                                |
|   \\  /    A nd           | Web:         http://www.foam-extend.org         |
|    \\/     M anipulation  |                                                 |
\*---------------------------------------------------------------------------*/
FoamFile
{
    version     2.0;
    format      ascii;
    class       regIOobject;
    location    "5/uniform";
    object      profilingInfo;
}
// * * * * * * * * * * * * * * * * * * * * * * * * * * * * * * * * * * * * * //

profilingInfo
(

    {
        id              6;
        parentId        5;
        description     "Foam::Time::writeObject - outputTime";
        calls           5;
        totalTime       0.315753;
        childTime       0;
        onStack         1;
    }

    {
        id              5;
        parentId        1;
        description     "Foam::Time::writeObject";
        calls           169;
        totalTime       0.316173;
        childTime       0.315753;
        onStack         1;
    }

    {
        id              1;
        description     "application::main";
        calls           1;
        totalTime       1.05511;
        childTime       0.328295;
        onStack         1;
    }

    {
        id              2;
        parentId        1;
        description     "functionObjectList::read";
        calls           1;
        totalTime       2.7e-05;
        childTime       0;
        onStack         0;
    }

    {
        id              3;
        parentId        1;
        description     "fvMatrix::solve_YCO2";
        calls           169;
        totalTime       0.012095;
        childTime       0.003059;
        onStack         0;
    }

    {
        id              4;
        parentId        3;
        description     "lduMatrix::solver_YCO2";
        calls           169;
        totalTime       0.003059;
        childTime       0;
        onStack         0;
    }
);


// ************************************************************************* //
