/*--------------------------------*- C++ -*----------------------------------*\
| =========                 |                                                 |
| \\      /  F ield         | foam-extend: Open Source CFD                    |
|  \\    /   O peration     | Version:     5.0                                |
|   \\  /    A nd           | Web:         http://www.foam-extend.org         |
|    \\/     M anipulation  |                                                 |
\*---------------------------------------------------------------------------*/
FoamFile
{
    version     2.0;
    format      ascii;
    class       surfaceScalarField;
    location    "2";
    object      phi;
}
// * * * * * * * * * * * * * * * * * * * * * * * * * * * * * * * * * * * * * //

dimensions      [0 3 -1 0 0 0 0];

internalField   nonuniform List<scalar> 
99
(
1.22512e-06
1.2257e-06
1.22589e-06
1.22592e-06
1.22614e-06
1.22575e-06
1.22565e-06
1.22607e-06
1.22696e-06
1.22556e-06
1.23777e-06
1.20699e-06
1.20699e-06
1.2517e-06
1.2368e-06
1.2219e-06
1.2517e-06
1.2517e-06
1.2517e-06
1.2219e-06
1.2517e-06
1.2666e-06
1.2368e-06
1.2368e-06
1.2219e-06
1.2368e-06
1.2368e-06
1.2219e-06
1.2517e-06
1.2666e-06
1.2666e-06
1.2815e-06
1.2815e-06
1.2964e-06
1.2815e-06
1.2815e-06
1.2815e-06
1.2964e-06
1.3113e-06
1.3411e-06
1.3262e-06
1.3411e-06
1.35601e-06
1.3262e-06
1.2964e-06
1.2964e-06
1.3113e-06
1.2815e-06
1.2815e-06
1.2815e-06
1.2517e-06
1.2517e-06
1.2517e-06
1.2815e-06
1.2964e-06
1.3113e-06
1.2964e-06
1.3411e-06
1.3113e-06
1.2964e-06
1.2815e-06
1.2666e-06
1.2517e-06
1.2815e-06
1.3113e-06
1.2964e-06
1.2964e-06
1.2666e-06
1.2517e-06
1.2964e-06
1.3113e-06
1.2815e-06
1.3113e-06
1.3113e-06
1.3113e-06
1.3113e-06
1.2964e-06
1.2964e-06
1.2964e-06
1.2964e-06
1.3113e-06
1.3262e-06
1.3262e-06
1.3113e-06
1.3113e-06
1.2964e-06
1.3113e-06
1.3262e-06
1.3113e-06
1.2964e-06
1.3113e-06
1.2964e-06
1.3262e-06
1.2964e-06
1.3113e-06
1.2964e-06
1.2815e-06
1.2815e-06
1.2815e-06
)
;

boundaryField
{
    inlet
    {
        type            calculated;
        value           uniform -1.225e-06;
    }
    outlet
    {
        type            calculated;
        value           uniform 1.3113e-06;
    }
    yzfaces
    {
        type            empty;
    }
}


// ************************************************************************* //
