/*--------------------------------*- C++ -*----------------------------------*\
| =========                 |                                                 |
| \\      /  F ield         | foam-extend: Open Source CFD                    |
|  \\    /   O peration     | Version:     5.0                                |
|   \\  /    A nd           | Web:         http://www.foam-extend.org         |
|    \\/     M anipulation  |                                                 |
\*---------------------------------------------------------------------------*/
FoamFile
{
    version     2.0;
    format      ascii;
    class       volVectorField;
    location    "2";
    object      U.gas;
}
// * * * * * * * * * * * * * * * * * * * * * * * * * * * * * * * * * * * * * //

dimensions      [0 1 -1 0 0 0 0];

internalField   nonuniform List<vector> 
100
(
(0.000325299 0 0)
(0.00073284 0 0)
(0.00112571 0 0)
(0.00152669 0 0)
(0.00195399 0 0)
(0.0024371 0 0)
(0.00303732 0 0)
(0.00391796 0 0)
(0.00576817 0 0)
(0.0117633 0 0)
(0.00481416 0 0)
(0.00498835 0 0)
(0.0049265 0 0)
(0.00501774 0 0)
(0.00507856 0 0)
(0.00501774 0 0)
(0.00504815 0 0)
(0.00510897 0 0)
(0.00510897 0 0)
(0.00504815 0 0)
(0.00504815 0 0)
(0.00513938 0 0)
(0.00510897 0 0)
(0.00504815 0 0)
(0.00501774 0 0)
(0.00501774 0 0)
(0.00504815 0 0)
(0.00501774 0 0)
(0.00504815 0 0)
(0.00513938 0 0)
(0.00516979 0 0)
(0.0052002 0 0)
(0.00523061 0 0)
(0.00526102 0 0)
(0.00526102 0 0)
(0.00523061 0 0)
(0.00523061 0 0)
(0.00526102 0 0)
(0.00532184 0 0)
(0.00541307 0 0)
(0.00544349 0 0)
(0.00544349 0 0)
(0.00550431 0 0)
(0.0054739 0 0)
(0.00535225 0 0)
(0.00529143 0 0)
(0.00532184 0 0)
(0.00529143 0 0)
(0.00523061 0 0)
(0.00523061 0 0)
(0.00516979 0 0)
(0.00510897 0 0)
(0.00510897 0 0)
(0.00516979 0 0)
(0.00526102 0 0)
(0.00532184 0 0)
(0.00532184 0 0)
(0.00538266 0 0)
(0.00541307 0 0)
(0.00532184 0 0)
(0.00526102 0 0)
(0.0052002 0 0)
(0.00513938 0 0)
(0.00516979 0 0)
(0.00529143 0 0)
(0.00532184 0 0)
(0.00529143 0 0)
(0.00523061 0 0)
(0.00513938 0 0)
(0.0052002 0 0)
(0.00532184 0 0)
(0.00529143 0 0)
(0.00529143 0 0)
(0.00535225 0 0)
(0.00535225 0 0)
(0.00535225 0 0)
(0.00532184 0 0)
(0.00529143 0 0)
(0.00529143 0 0)
(0.00529143 0 0)
(0.00532184 0 0)
(0.00538266 0 0)
(0.00541307 0 0)
(0.00538266 0 0)
(0.00535225 0 0)
(0.00532184 0 0)
(0.00532184 0 0)
(0.00538266 0 0)
(0.00538266 0 0)
(0.00532184 0 0)
(0.00532184 0 0)
(0.00532184 0 0)
(0.00535225 0 0)
(0.00535225 0 0)
(0.00532184 0 0)
(0.00532184 0 0)
(0.00526102 0 0)
(0.00523061 0 0)
(0.00523061 0 0)
(0.00529143 0 0)
)
;

boundaryField
{
    inlet
    {
        type            fixedValue;
        value           uniform (0 0 0);
    }
    outlet
    {
        type            zeroGradient;
    }
    yzfaces
    {
        type            empty;
    }
}


// ************************************************************************* //
