/*--------------------------------*- C++ -*----------------------------------*\
| =========                 |                                                 |
| \\      /  F ield         | foam-extend: Open Source CFD                    |
|  \\    /   O peration     | Version:     5.0                                |
|   \\  /    A nd           | Web:         http://www.foam-extend.org         |
|    \\/     M anipulation  |                                                 |
\*---------------------------------------------------------------------------*/
FoamFile
{
    version     2.0;
    format      ascii;
    class       volScalarField;
    location    "5";
    object      alpha.gas;
}
// * * * * * * * * * * * * * * * * * * * * * * * * * * * * * * * * * * * * * //

dimensions      [0 0 0 0 0 0 0];

internalField   nonuniform List<scalar> 
100
(
0.0843338
0.0827169
0.0812275
0.0798288
0.0782665
0.0767931
0.0754667
0.0740161
0.0726403
0.0713631
0.0700697
0.0688881
0.0677253
0.0664939
0.0653828
0.0642967
0.063264
0.0622883
0.0613099
0.0603464
0.0594868
0.0585774
0.0577177
0.0568842
0.0561387
0.0553698
0.054587
0.0538526
0.0531913
0.0525133
0.0518249
0.0512333
0.0505908
0.049984
0.0493708
0.0488281
0.0482726
0.0477413
0.047201
0.0466795
0.046178
0.0456614
0.0451716
0.0447614
0.0442529
0.0438255
0.0433673
0.0429815
0.0425294
0.0421351
0.0417279
0.0413647
0.0409927
0.0405632
0.0402063
0.0398164
0.0394255
0.0391113
0.0387561
0.0384023
0.0380404
0.0377224
0.0374079
0.0370607
0.0367345
0.0364207
0.0361137
0.0358105
0.0354985
0.0351876
0.034884
0.0345628
0.034257
0.0339582
0.0336567
0.0333696
0.0330722
0.0328029
0.0325382
0.0322285
0.0319532
0.031677
0.0313923
0.0311055
0.0308586
0.0305652
0.0302749
0.0300096
0.0297324
0.0294459
0.0291722
0.028876
0.0285955
0.0283228
0.0280307
0.0277259
0.027443
0.0271534
0.0268901
0.0266898
)
;

boundaryField
{
    inlet
    {
        type            fixedValue;
        value           uniform 0.2;
    }
    outlet
    {
        type            zeroGradient;
    }
    yzfaces
    {
        type            empty;
    }
}


// ************************************************************************* //
