/*--------------------------------*- C++ -*----------------------------------*\
| =========                 |                                                 |
| \\      /  F ield         | foam-extend: Open Source CFD                    |
|  \\    /   O peration     | Version:     5.0                                |
|   \\  /    A nd           | Web:         http://www.foam-extend.org         |
|    \\/     M anipulation  |                                                 |
\*---------------------------------------------------------------------------*/
FoamFile
{
    version     2.0;
    format      ascii;
    class       volScalarField;
    location    "5";
    object      CO2.gas;
}
// * * * * * * * * * * * * * * * * * * * * * * * * * * * * * * * * * * * * * //

dimensions      [0 0 0 0 0 0 0];

internalField   nonuniform List<scalar> 
100
(
0.0843337
0.0827062
0.081215
0.0798705
0.0782715
0.0768057
0.0755015
0.074045
0.0726557
0.0713895
0.0700657
0.068887
0.0677356
0.0664859
0.0653891
0.0642848
0.0632592
0.0622927
0.0613123
0.0603411
0.0594948
0.0585781
0.0577099
0.0568782
0.056142
0.0553793
0.0545888
0.053844
0.0531968
0.052505
0.0518136
0.051237
0.0505871
0.0499847
0.0493627
0.0488278
0.0482799
0.0477531
0.0472016
0.0466836
0.0461797
0.0456572
0.0451605
0.044772
0.0442495
0.0438268
0.0433633
0.0429871
0.0425257
0.0421374
0.0417264
0.0413712
0.0410004
0.0405571
0.0402095
0.0398197
0.0394196
0.0391163
0.0387601
0.0384058
0.0380356
0.037722
0.0374135
0.0370613
0.0367331
0.0364206
0.036115
0.0358156
0.0355021
0.0351896
0.0348859
0.0345589
0.0342547
0.0339558
0.0336551
0.0333698
0.0330702
0.0328052
0.032543
0.0322245
0.031953
0.031677
0.0313918
0.0311024
0.0308633
0.0305644
0.0302729
0.0300105
0.0297333
0.0294445
0.0291724
0.0288716
0.0285944
0.0283249
0.0280325
0.0277249
0.0274457
0.027155
0.0268902
0.0266895
)
;

boundaryField
{
    inlet
    {
        type            fixedValue;
        value           uniform 0.2;
    }
    outlet
    {
        type            zeroGradient;
    }
    yzfaces
    {
        type            empty;
    }
}


// ************************************************************************* //
