/*--------------------------------*- C++ -*----------------------------------*\
| =========                 |                                                 |
| \\      /  F ield         | foam-extend: Open Source CFD                    |
|  \\    /   O peration     | Version:     5.0                                |
|   \\  /    A nd           | Web:         http://www.foam-extend.org         |
|    \\/     M anipulation  |                                                 |
\*---------------------------------------------------------------------------*/
FoamFile
{
    version     2.0;
    format      ascii;
    class       surfaceScalarField;
    location    "5";
    object      phi;
}
// * * * * * * * * * * * * * * * * * * * * * * * * * * * * * * * * * * * * * //

dimensions      [0 3 -1 0 0 0 0];

internalField   nonuniform List<scalar> 
99
(
1.22481e-06
1.22412e-06
1.22497e-06
1.21654e-06
1.21687e-06
1.21694e-06
1.20988e-06
1.20748e-06
1.20404e-06
1.20232e-06
1.20627e-06
1.20939e-06
1.20651e-06
1.21326e-06
1.2102e-06
1.21514e-06
1.21533e-06
1.21514e-06
1.21333e-06
1.21698e-06
1.2128e-06
1.21351e-06
1.21387e-06
1.21312e-06
1.2139e-06
1.21019e-06
1.21222e-06
1.21602e-06
1.21338e-06
1.21536e-06
1.21859e-06
1.21696e-06
1.21892e-06
1.2177e-06
1.22045e-06
1.22061e-06
1.21802e-06
1.21642e-06
1.21872e-06
1.21753e-06
1.21592e-06
1.21692e-06
1.22201e-06
1.2152e-06
1.21833e-06
1.21771e-06
1.21908e-06
1.21691e-06
1.21931e-06
1.21859e-06
1.21955e-06
1.21731e-06
1.21458e-06
1.21793e-06
1.21712e-06
1.21389e-06
1.21731e-06
1.21502e-06
1.21474e-06
1.21251e-06
1.21559e-06
1.21623e-06
1.21413e-06
1.21386e-06
1.21527e-06
1.21482e-06
1.21473e-06
1.21285e-06
1.212e-06
1.2127e-06
1.21157e-06
1.21342e-06
1.21358e-06
1.21357e-06
1.21404e-06
1.21365e-06
1.21434e-06
1.21321e-06
1.21083e-06
1.2137e-06
1.21331e-06
1.21243e-06
1.2123e-06
1.2151e-06
1.21109e-06
1.21279e-06
1.21362e-06
1.21324e-06
1.21204e-06
1.21385e-06
1.21175e-06
1.21512e-06
1.21439e-06
1.21311e-06
1.21205e-06
1.21368e-06
1.21257e-06
1.21126e-06
1.21185e-06
)
;

boundaryField
{
    inlet
    {
        type            calculated;
        value           uniform -1.225e-06;
    }
    outlet
    {
        type            calculated;
        value           uniform 1.21219e-06;
    }
    yzfaces
    {
        type            empty;
    }
}


// ************************************************************************* //
