/*--------------------------------*- C++ -*----------------------------------*\
| =========                 |                                                 |
| \\      /  F ield         | foam-extend: Open Source CFD                    |
|  \\    /   O peration     | Version:     5.0                                |
|   \\  /    A nd           | Web:         http://www.foam-extend.org         |
|    \\/     M anipulation  |                                                 |
\*---------------------------------------------------------------------------*/
FoamFile
{
    version     2.0;
    format      ascii;
    class       volVectorField;
    location    "5";
    object      U.gas;
}
// * * * * * * * * * * * * * * * * * * * * * * * * * * * * * * * * * * * * * //

dimensions      [0 1 -1 0 0 0 0];

internalField   nonuniform List<vector> 
100
(
(0.0118439 0 0)
(0.0120315 0 0)
(0.0122032 0 0)
(0.0123641 0 0)
(0.0125517 0 0)
(0.012734 0 0)
(0.0128878 0 0)
(0.0130639 0 0)
(0.0132208 0 0)
(0.0133803 0 0)
(0.0135865 0 0)
(0.0137996 0 0)
(0.0140025 0 0)
(0.0142303 0 0)
(0.0144242 0 0)
(0.0146175 0 0)
(0.0148194 0 0)
(0.0149913 0 0)
(0.0151624 0 0)
(0.01534 0 0)
(0.0154927 0 0)
(0.0156521 0 0)
(0.0158173 0 0)
(0.0159644 0 0)
(0.0161035 0 0)
(0.0162528 0 0)
(0.0164018 0 0)
(0.0165732 0 0)
(0.0167104 0 0)
(0.016858 0 0)
(0.0170277 0 0)
(0.017156 0 0)
(0.0173068 0 0)
(0.0174397 0 0)
(0.0175771 0 0)
(0.0177058 0 0)
(0.0178137 0 0)
(0.0179014 0 0)
(0.0180293 0 0)
(0.0181471 0 0)
(0.0182387 0 0)
(0.0183513 0 0)
(0.0184861 0 0)
(0.0185664 0 0)
(0.0186684 0 0)
(0.0187676 0 0)
(0.0188742 0 0)
(0.0189487 0 0)
(0.0190621 0 0)
(0.0191486 0 0)
(0.0192402 0 0)
(0.0193024 0 0)
(0.019363 0 0)
(0.0194673 0 0)
(0.0195521 0 0)
(0.0196193 0 0)
(0.0196892 0 0)
(0.0197507 0 0)
(0.0198243 0 0)
(0.0198816 0 0)
(0.0199599 0 0)
(0.0200421 0 0)
(0.0201037 0 0)
(0.020164 0 0)
(0.0202287 0 0)
(0.0202955 0 0)
(0.0203501 0 0)
(0.0203948 0 0)
(0.0204374 0 0)
(0.0204954 0 0)
(0.0205514 0 0)
(0.0206195 0 0)
(0.0206837 0 0)
(0.0207382 0 0)
(0.0207936 0 0)
(0.0208402 0 0)
(0.0208923 0 0)
(0.0209188 0 0)
(0.0209425 0 0)
(0.0210076 0 0)
(0.0210526 0 0)
(0.0210871 0 0)
(0.0211241 0 0)
(0.0211789 0 0)
(0.0211926 0 0)
(0.0212331 0 0)
(0.021283 0 0)
(0.0213082 0 0)
(0.0213335 0 0)
(0.0213701 0 0)
(0.0213924 0 0)
(0.0214383 0 0)
(0.0214738 0 0)
(0.0214778 0 0)
(0.0214942 0 0)
(0.0215187 0 0)
(0.0215249 0 0)
(0.0215155 0 0)
(0.0214865 0 0)
(0.0214075 0 0)
)
;

boundaryField
{
    inlet
    {
        type            fixedValue;
        value           uniform (0.005 0 0);
    }
    outlet
    {
        type            zeroGradient;
    }
    yzfaces
    {
        type            empty;
    }
}


// ************************************************************************* //
