/*--------------------------------*- C++ -*----------------------------------*\
| =========                 |                                                 |
| \\      /  F ield         | foam-extend: Open Source CFD                    |
|  \\    /   O peration     | Version:     5.0                                |
|   \\  /    A nd           | Web:         http://www.foam-extend.org         |
|    \\/     M anipulation  |                                                 |
\*---------------------------------------------------------------------------*/
FoamFile
{
    version     2.0;
    format      ascii;
    class       volVectorField;
    location    "5";
    object      U.water;
}
// * * * * * * * * * * * * * * * * * * * * * * * * * * * * * * * * * * * * * //

dimensions      [0 1 -1 0 0 0 0];

internalField   nonuniform List<vector> 
100
(
(9.38276e-06 0 0)
(3.71157e-05 0 0)
(7.06585e-05 0 0)
(7.92518e-05 0 0)
(8.91544e-05 0 0)
(0.000125883 0 0)
(0.000144074 0 0)
(0.000156653 0 0)
(0.00018789 0 0)
(0.000212442 0 0)
(0.000239335 0 0)
(0.000269679 0 0)
(0.00028548 0 0)
(0.000310341 0 0)
(0.000342248 0 0)
(0.000368997 0 0)
(0.000398542 0 0)
(0.000422915 0 0)
(0.000444197 0 0)
(0.000474391 0 0)
(0.000499153 0 0)
(0.000519516 0 0)
(0.000546994 0 0)
(0.000576361 0 0)
(0.000601912 0 0)
(0.000618887 0 0)
(0.000642383 0 0)
(0.000674721 0 0)
(0.000699866 0 0)
(0.000719064 0 0)
(0.000749079 0 0)
(0.000773981 0 0)
(0.00079427 0 0)
(0.000818783 0 0)
(0.000845583 0 0)
(0.000871943 0 0)
(0.000892678 0 0)
(0.000912973 0 0)
(0.000935445 0 0)
(0.000960696 0 0)
(0.000981786 0 0)
(0.0010046 0 0)
(0.00103623 0 0)
(0.00105464 0 0)
(0.00107319 0 0)
(0.00110008 0 0)
(0.0011242 0 0)
(0.00114536 0 0)
(0.00116643 0 0)
(0.00119236 0 0)
(0.00121503 0 0)
(0.00123677 0 0)
(0.0012507 0 0)
(0.00127452 0 0)
(0.00130029 0 0)
(0.00131771 0 0)
(0.00134561 0 0)
(0.00136933 0 0)
(0.00138562 0 0)
(0.00140605 0 0)
(0.00143109 0 0)
(0.00145764 0 0)
(0.00147574 0 0)
(0.0014958 0 0)
(0.00152138 0 0)
(0.00154478 0 0)
(0.00156654 0 0)
(0.00158657 0 0)
(0.00160628 0 0)
(0.00162905 0 0)
(0.00165086 0 0)
(0.00167508 0 0)
(0.00170172 0 0)
(0.00172512 0 0)
(0.0017495 0 0)
(0.00177316 0 0)
(0.00179755 0 0)
(0.00182204 0 0)
(0.00183908 0 0)
(0.00186303 0 0)
(0.00189187 0 0)
(0.00191371 0 0)
(0.00193674 0 0)
(0.00196569 0 0)
(0.00198831 0 0)
(0.0020087 0 0)
(0.00203879 0 0)
(0.00206544 0 0)
(0.00208855 0 0)
(0.00211603 0 0)
(0.00214238 0 0)
(0.00217097 0 0)
(0.00220287 0 0)
(0.00222806 0 0)
(0.00225252 0 0)
(0.00228396 0 0)
(0.00231575 0 0)
(0.00234369 0 0)
(0.00237567 0 0)
(0.0024121 0 0)
)
;

boundaryField
{
    inlet
    {
        type            fixedValue;
        value           uniform (0 0 0);
    }
    outlet
    {
        type            zeroGradient;
    }
    yzfaces
    {
        type            empty;
    }
}


// ************************************************************************* //
