/*--------------------------------*- C++ -*----------------------------------*\
| =========                 |                                                 |
| \\      /  F ield         | foam-extend: Open Source CFD                    |
|  \\    /   O peration     | Version:     5.0                                |
|   \\  /    A nd           | Web:         http://www.foam-extend.org         |
|    \\/     M anipulation  |                                                 |
\*---------------------------------------------------------------------------*/
FoamFile
{
    version     2.0;
    format      ascii;
    class       surfaceScalarField;
    location    "1";
    object      phi;
}
// * * * * * * * * * * * * * * * * * * * * * * * * * * * * * * * * * * * * * //

dimensions      [0 3 -1 0 0 0 0];

internalField   nonuniform List<scalar> 
99
(
1.22108e-06
1.22842e-06
1.22806e-06
1.22468e-06
1.21739e-06
1.21902e-06
1.22326e-06
1.22162e-06
1.2211e-06
1.22193e-06
1.22448e-06
1.21785e-06
1.22004e-06
1.22079e-06
1.2182e-06
1.2196e-06
1.21905e-06
1.21927e-06
1.21641e-06
1.21819e-06
1.21701e-06
1.21787e-06
1.21817e-06
1.21703e-06
1.21788e-06
1.2169e-06
1.21716e-06
1.21735e-06
1.21786e-06
1.217e-06
1.21805e-06
1.21698e-06
1.21745e-06
1.21807e-06
1.21783e-06
1.2173e-06
1.21729e-06
1.21664e-06
1.21843e-06
1.21696e-06
1.21703e-06
1.21841e-06
1.21716e-06
1.21755e-06
1.21621e-06
1.21716e-06
1.21766e-06
1.21612e-06
1.21846e-06
1.21706e-06
1.21772e-06
1.21715e-06
1.21766e-06
1.2166e-06
1.21553e-06
1.216e-06
1.21616e-06
1.21558e-06
1.21466e-06
1.21726e-06
1.21624e-06
1.2171e-06
1.21481e-06
1.21538e-06
1.21511e-06
1.2149e-06
1.21461e-06
1.21461e-06
1.2165e-06
1.21431e-06
1.21411e-06
1.21462e-06
1.21337e-06
1.21361e-06
1.21224e-06
1.21374e-06
1.21467e-06
1.21373e-06
1.21312e-06
1.21444e-06
1.21382e-06
1.21316e-06
1.21248e-06
1.21238e-06
1.21418e-06
1.21448e-06
1.21493e-06
1.21485e-06
1.21449e-06
1.21406e-06
1.21396e-06
1.21546e-06
1.21416e-06
1.21488e-06
1.21542e-06
1.21529e-06
1.21463e-06
1.21448e-06
1.21288e-06
)
;

boundaryField
{
    inlet
    {
        type            calculated;
        value           uniform -1.225e-06;
    }
    outlet
    {
        type            calculated;
        value           uniform 1.21365e-06;
    }
    yzfaces
    {
        type            empty;
    }
}


// ************************************************************************* //
