/*--------------------------------*- C++ -*----------------------------------*\
| =========                 |                                                 |
| \\      /  F ield         | foam-extend: Open Source CFD                    |
|  \\    /   O peration     | Version:     5.0                                |
|   \\  /    A nd           | Web:         http://www.foam-extend.org         |
|    \\/     M anipulation  |                                                 |
\*---------------------------------------------------------------------------*/
FoamFile
{
    version     2.0;
    format      ascii;
    class       volVectorField;
    location    "1";
    object      U.gas;
}
// * * * * * * * * * * * * * * * * * * * * * * * * * * * * * * * * * * * * * //

dimensions      [0 1 -1 0 0 0 0];

internalField   nonuniform List<vector> 
100
(
(0.0154627 0 0)
(0.0160778 0 0)
(0.0166475 0 0)
(0.0171454 0 0)
(0.0176121 0 0)
(0.0181317 0 0)
(0.0186481 0 0)
(0.0190975 0 0)
(0.0195206 0 0)
(0.0199254 0 0)
(0.0202859 0 0)
(0.0205634 0 0)
(0.0208765 0 0)
(0.0211573 0 0)
(0.0213701 0 0)
(0.0215974 0 0)
(0.0217864 0 0)
(0.0219396 0 0)
(0.0220486 0 0)
(0.0221555 0 0)
(0.0222182 0 0)
(0.022253 0 0)
(0.0222736 0 0)
(0.0222399 0 0)
(0.0221935 0 0)
(0.022105 0 0)
(0.0219741 0 0)
(0.0218041 0 0)
(0.0216069 0 0)
(0.0213614 0 0)
(0.0210721 0 0)
(0.0207254 0 0)
(0.0203455 0 0)
(0.0199268 0 0)
(0.0194575 0 0)
(0.0189376 0 0)
(0.0184057 0 0)
(0.0178501 0 0)
(0.0173177 0 0)
(0.0167743 0 0)
(0.0162573 0 0)
(0.0157956 0 0)
(0.0153696 0 0)
(0.0149997 0 0)
(0.0146821 0 0)
(0.0144273 0 0)
(0.0142185 0 0)
(0.0140429 0 0)
(0.0139254 0 0)
(0.0138191 0 0)
(0.0137423 0 0)
(0.0136809 0 0)
(0.0136408 0 0)
(0.0135991 0 0)
(0.0135585 0 0)
(0.0135487 0 0)
(0.0135314 0 0)
(0.0135229 0 0)
(0.0135074 0 0)
(0.013519 0 0)
(0.0135168 0 0)
(0.0135112 0 0)
(0.0134984 0 0)
(0.0134952 0 0)
(0.013491 0 0)
(0.0134882 0 0)
(0.0134862 0 0)
(0.0134838 0 0)
(0.0134956 0 0)
(0.0134845 0 0)
(0.0134793 0 0)
(0.0134828 0 0)
(0.0134727 0 0)
(0.0134723 0 0)
(0.0134641 0 0)
(0.0134728 0 0)
(0.0134807 0 0)
(0.0134749 0 0)
(0.0134747 0 0)
(0.01348 0 0)
(0.013478 0 0)
(0.0134705 0 0)
(0.0134626 0 0)
(0.0134659 0 0)
(0.0134782 0 0)
(0.0134781 0 0)
(0.0134852 0 0)
(0.0134884 0 0)
(0.0134836 0 0)
(0.0134802 0 0)
(0.0134822 0 0)
(0.013491 0 0)
(0.0134865 0 0)
(0.0134873 0 0)
(0.0134934 0 0)
(0.0134903 0 0)
(0.0134875 0 0)
(0.0134823 0 0)
(0.0134739 0 0)
(0.0134724 0 0)
)
;

boundaryField
{
    inlet
    {
        type            fixedValue;
        value           uniform (0.005 0 0);
    }
    outlet
    {
        type            zeroGradient;
    }
    yzfaces
    {
        type            empty;
    }
}


// ************************************************************************* //
