/*--------------------------------*- C++ -*----------------------------------*\
| =========                 |                                                 |
| \\      /  F ield         | foam-extend: Open Source CFD                    |
|  \\    /   O peration     | Version:     5.0                                |
|   \\  /    A nd           | Web:         http://www.foam-extend.org         |
|    \\/     M anipulation  |                                                 |
\*---------------------------------------------------------------------------*/
FoamFile
{
    version     2.0;
    format      ascii;
    class       volScalarField;
    location    "1";
    object      YCO2;
}
// * * * * * * * * * * * * * * * * * * * * * * * * * * * * * * * * * * * * * //

dimensions      [0 0 0 0 0 0 0];

internalField   nonuniform List<scalar> 
100
(
1.00067
0.998231
1.00004
0.998367
1.00076
1.0002
0.999316
1.00087
0.999906
1.00172
0.998829
1.00314
1.00033
1.0003
0.998626
0.994453
0.983579
0.970184
0.946272
0.914821
0.871113
0.817464
0.751207
0.67578
0.592565
0.505597
0.418498
0.334841
0.258556
0.192369
0.137279
0.0938957
0.0613301
0.038175
0.0226222
0.0127068
0.00676051
0.00340192
0.00161967
0.00073039
0.000312237
0.000127056
4.94294e-05
1.84726e-05
6.67386e-06
2.34358e-06
8.06176e-07
2.73099e-07
9.16941e-08
3.07537e-08
1.03649e-08
3.53895e-09
1.23473e-09
4.44076e-10
1.65442e-10
6.42665e-11
2.60067e-11
1.09465e-11
4.76003e-12
2.12406e-12
9.68272e-13
4.47689e-13
2.09069e-13
9.83277e-14
4.64725e-14
2.20467e-14
1.04827e-14
4.99224e-15
2.3808e-15
1.13643e-15
5.42396e-16
2.59022e-16
1.23767e-16
5.91585e-17
2.8274e-17
1.35186e-17
6.46769e-18
3.09324e-18
1.48048e-18
7.08355e-19
3.38892e-19
1.62156e-19
7.75426e-20
3.70907e-20
1.7741e-20
8.48986e-21
4.06235e-21
1.94481e-21
9.30279e-22
4.44983e-22
2.12829e-22
1.01778e-22
4.87147e-23
2.32951e-23
1.11506e-23
5.33211e-24
2.55822e-24
1.20933e-24
6.05862e-25
2.31895e-25
)
;

boundaryField
{
    inlet
    {
        type            fixedValue;
        value           uniform 1;
    }
    outlet
    {
        type            zeroGradient;
    }
    yzfaces
    {
        type            empty;
    }
}


// ************************************************************************* //
