/*--------------------------------*- C++ -*----------------------------------*\
| =========                 |                                                 |
| \\      /  F ield         | foam-extend: Open Source CFD                    |
|  \\    /   O peration     | Version:     5.0                                |
|   \\  /    A nd           | Web:         http://www.foam-extend.org         |
|    \\/     M anipulation  |                                                 |
\*---------------------------------------------------------------------------*/
FoamFile
{
    version     2.0;
    format      ascii;
    class       surfaceScalarField;
    location    "1";
    object      phi;
}
// * * * * * * * * * * * * * * * * * * * * * * * * * * * * * * * * * * * * * //

dimensions      [0 3 -1 0 0 0 0];

internalField   nonuniform List<scalar> 
99
(
1.22451e-06
1.22446e-06
1.22516e-06
1.22475e-06
1.22766e-06
1.22695e-06
1.21916e-06
1.23388e-06
1.25317e-06
1.22991e-06
1.2591e-06
1.22719e-06
1.21983e-06
1.21678e-06
1.21523e-06
1.22177e-06
1.23029e-06
1.21429e-06
1.22904e-06
1.22155e-06
1.23793e-06
1.20653e-06
1.207e-06
1.19272e-06
1.17806e-06
1.18499e-06
1.16226e-06
1.19234e-06
1.17674e-06
1.20814e-06
1.2073e-06
1.20803e-06
1.18431e-06
1.19996e-06
1.20659e-06
1.22911e-06
1.22873e-06
1.22943e-06
1.22225e-06
1.22917e-06
1.22185e-06
1.22944e-06
1.19989e-06
1.20001e-06
1.18499e-06
1.18369e-06
1.20003e-06
1.16331e-06
1.13202e-06
1.14067e-06
1.13286e-06
1.14752e-06
1.13978e-06
1.14013e-06
1.14743e-06
1.15472e-06
1.13992e-06
1.15512e-06
1.11833e-06
1.13243e-06
1.12541e-06
1.12572e-06
1.118e-06
1.11685e-06
1.13229e-06
1.1175e-06
1.09525e-06
1.10274e-06
1.09501e-06
1.08824e-06
1.07329e-06
1.07974e-06
1.08732e-06
1.08707e-06
1.0729e-06
1.102e-06
1.09517e-06
1.11069e-06
1.08774e-06
1.0735e-06
1.11088e-06
1.07992e-06
1.09593e-06
1.0953e-06
1.11739e-06
1.13269e-06
1.12542e-06
1.13328e-06
1.12485e-06
1.12509e-06
1.10937e-06
1.13237e-06
1.1471e-06
1.13981e-06
1.14675e-06
1.18516e-06
1.14721e-06
1.14691e-06
1.16919e-06
)
;

boundaryField
{
    inlet
    {
        type            calculated;
        value           uniform -1.225e-06;
    }
    outlet
    {
        type            calculated;
        value           uniform 1.19341e-06;
    }
    yzfaces
    {
        type            empty;
    }
}


// ************************************************************************* //
