/*--------------------------------*- C++ -*----------------------------------*\
| =========                 |                                                 |
| \\      /  F ield         | foam-extend: Open Source CFD                    |
|  \\    /   O peration     | Version:     5.0                                |
|   \\  /    A nd           | Web:         http://www.foam-extend.org         |
|    \\/     M anipulation  |                                                 |
\*---------------------------------------------------------------------------*/
FoamFile
{
    version     2.0;
    format      ascii;
    class       volScalarField;
    location    "3";
    object      XCO2;
}
// * * * * * * * * * * * * * * * * * * * * * * * * * * * * * * * * * * * * * //

dimensions      [0 0 0 0 0 0 0];

internalField   nonuniform List<scalar> 
100
(
1998.54
-7331.55
19779.8
-51345.3
126597
-298784
677213
-1.47448e+06
3.07992e+06
-6.15632e+06
1.17892e+07
-2.20171e+07
4.29812e+07
-1.00319e+08
2.86854e+08
-8.05515e+08
1.38296e+09
2.2886e+09
-2.25402e+10
-1.16306e+09
8.57119e+11
-4.28745e+12
-4.06268e+13
-1.18791e+14
-1.95504e+14
-1.77927e+14
-1.45885e+13
-8.49917e+10
-3.99662e+07
-1591.42
0.994632
1
1
1
1
1
1
1
1
1
1
1
1
1
1
1
1
1
1
1
1
1
1
1
1
1
1
1
1
1
1
1
1
1
1
1
1
1
1
1
1
1
1
1
1
1
1
1
1
1
1
1
1
1
1
1
1
1
1
1
1
1
1
1
1
1
1
1
1
1
)
;

boundaryField
{
    inlet
    {
        type            calculated;
        value           uniform 0.5;
    }
    outlet
    {
        type            calculated;
        value           uniform 1;
    }
    yzfaces
    {
        type            empty;
    }
}


// ************************************************************************* //
