/*--------------------------------*- C++ -*----------------------------------*\
| =========                 |                                                 |
| \\      /  F ield         | foam-extend: Open Source CFD                    |
|  \\    /   O peration     | Version:     5.0                                |
|   \\  /    A nd           | Web:         http://www.foam-extend.org         |
|    \\/     M anipulation  |                                                 |
\*---------------------------------------------------------------------------*/
FoamFile
{
    version     2.0;
    format      ascii;
    class       volScalarField;
    location    "3";
    object      XH2O;
}
// * * * * * * * * * * * * * * * * * * * * * * * * * * * * * * * * * * * * * //

dimensions      [0 0 0 0 0 0 0];

internalField   nonuniform List<scalar> 
100
(
-1997.54
7332.55
-19778.8
51346.3
-126596
298785
-677212
1.47448e+06
-3.07992e+06
6.15632e+06
-1.17892e+07
2.20171e+07
-4.29812e+07
1.00319e+08
-2.86854e+08
8.05515e+08
-1.38296e+09
-2.2886e+09
2.25402e+10
1.16306e+09
-8.57119e+11
4.28745e+12
4.06268e+13
1.18791e+14
1.95504e+14
1.77927e+14
1.45885e+13
8.49917e+10
3.99662e+07
1592.42
0.00536784
1.49172e-09
3.57198e-17
7.24591e-26
1.24592e-35
1.85613e-46
2.32606e-58
2.51926e-71
2.2823e-85
1.80356e-100
1.1772e-116
6.67392e-134
3.13829e-152
1.25166e-171
4.1773e-192
1.16267e-213
2.74232e-236
5.46225e-260
8.97782e-285
1.21437e-310
0
0
0
0
0
0
0
0
0
0
0
0
0
0
0
0
0
0
0
0
0
0
0
0
0
0
0
0
0
0
0
0
0
0
0
0
0
0
0
0
0
0
0
0
0
0
0
0
0
0
)
;

boundaryField
{
    inlet
    {
        type            fixedValue;
        value           uniform 0.5;
    }
    outlet
    {
        type            zeroGradient;
    }
    yzfaces
    {
        type            empty;
    }
}


// ************************************************************************* //
