/*--------------------------------*- C++ -*----------------------------------*\
| =========                 |                                                 |
| \\      /  F ield         | foam-extend: Open Source CFD                    |
|  \\    /   O peration     | Version:     5.0                                |
|   \\  /    A nd           | Web:         http://www.foam-extend.org         |
|    \\/     M anipulation  |                                                 |
\*---------------------------------------------------------------------------*/
FoamFile
{
    version     2.0;
    format      ascii;
    class       volVectorField;
    location    "8";
    object      U.gas;
}
// * * * * * * * * * * * * * * * * * * * * * * * * * * * * * * * * * * * * * //

dimensions      [0 1 -1 0 0 0 0];

internalField   nonuniform List<vector> 
100
(
(7.27524e-05 0 0)
(0.000163199 0 0)
(0.000247128 0 0)
(0.000328763 0 0)
(0.000409131 0 0)
(0.000488173 0 0)
(0.000566446 0 0)
(0.000644932 0 0)
(0.000722464 0 0)
(0.000800583 0 0)
(0.000879452 0 0)
(0.000957546 0 0)
(0.00103569 0 0)
(0.00111451 0 0)
(0.00119401 0 0)
(0.0012743 0 0)
(0.00135467 0 0)
(0.00143682 0 0)
(0.00151944 0 0)
(0.00160246 0 0)
(0.00168714 0 0)
(0.00177761 0 0)
(0.00186824 0 0)
(0.00195845 0 0)
(0.00205827 0 0)
(0.00216084 0 0)
(0.00226903 0 0)
(0.00238901 0 0)
(0.00251784 0 0)
(0.00266665 0 0)
(0.0028396 0 0)
(0.0030467 0 0)
(0.00332464 0 0)
(0.00372095 0 0)
(0.00437481 0 0)
(0.00556317 0 0)
(0.00642452 0 0)
(0.00584568 0 0)
(0.00542005 0 0)
(0.00529559 0 0)
(0.00526544 0 0)
(0.00524836 0 0)
(0.00524096 0 0)
(0.00520489 0 0)
(0.00516024 0 0)
(0.00505242 0 0)
(0.00490438 0 0)
(0.00504014 0 0)
(0.00508084 0 0)
(0.00489626 0 0)
(0.00495693 0 0)
(0.00513938 0 0)
(0.0052002 0 0)
(0.00526102 0 0)
(0.00532184 0 0)
(0.00529143 0 0)
(0.00529143 0 0)
(0.00526102 0 0)
(0.00516979 0 0)
(0.0052002 0 0)
(0.00526102 0 0)
(0.00529143 0 0)
(0.00535225 0 0)
(0.00535225 0 0)
(0.00538266 0 0)
(0.00541307 0 0)
(0.00538266 0 0)
(0.00535225 0 0)
(0.00541307 0 0)
(0.0054739 0 0)
(0.00550431 0 0)
(0.00562595 0 0)
(0.00568677 0 0)
(0.005778 0 0)
(0.00586923 0 0)
(0.00583882 0 0)
(0.00583882 0 0)
(0.00586923 0 0)
(0.00596046 0 0)
(0.0060517 0 0)
(0.00602129 0 0)
(0.00596046 0 0)
(0.00599088 0 0)
(0.00599088 0 0)
(0.00602129 0 0)
(0.00611252 0 0)
(0.00608211 0 0)
(0.00611252 0 0)
(0.00620375 0 0)
(0.00620375 0 0)
(0.00629498 0 0)
(0.00641662 0 0)
(0.00632539 0 0)
(0.00629498 0 0)
(0.00644703 0 0)
(0.00647744 0 0)
(0.00647744 0 0)
(0.00659909 0 0)
(0.00669032 0 0)
(0.00669032 0 0)
)
;

boundaryField
{
    inlet
    {
        type            fixedValue;
        value           uniform (0 0 0);
    }
    outlet
    {
        type            zeroGradient;
    }
    yzfaces
    {
        type            empty;
    }
}


// ************************************************************************* //
