/*--------------------------------*- C++ -*----------------------------------*\
| =========                 |                                                 |
| \\      /  F ield         | foam-extend: Open Source CFD                    |
|  \\    /   O peration     | Version:     5.0                                |
|   \\  /    A nd           | Web:         http://www.foam-extend.org         |
|    \\/     M anipulation  |                                                 |
\*---------------------------------------------------------------------------*/
FoamFile
{
    version     2.0;
    format      ascii;
    class       surfaceScalarField;
    location    "6";
    object      phi;
}
// * * * * * * * * * * * * * * * * * * * * * * * * * * * * * * * * * * * * * //

dimensions      [0 3 -1 0 0 0 0];

internalField   nonuniform List<scalar> 
99
(
1.22531e-06
1.22526e-06
1.2256e-06
1.22594e-06
1.22426e-06
1.2257e-06
1.22518e-06
1.22514e-06
1.2249e-06
1.22572e-06
1.22553e-06
1.2265e-06
1.22689e-06
1.22601e-06
1.2268e-06
1.22473e-06
1.2267e-06
1.22638e-06
1.22715e-06
1.22654e-06
1.22682e-06
1.22604e-06
1.22706e-06
1.22643e-06
1.22712e-06
1.22764e-06
1.22833e-06
1.22849e-06
1.22903e-06
1.22865e-06
1.21411e-06
1.23679e-06
1.2368e-06
1.2517e-06
1.2368e-06
1.2517e-06
1.2368e-06
1.2666e-06
1.2666e-06
1.2368e-06
1.20699e-06
1.2666e-06
1.2517e-06
1.2815e-06
1.2517e-06
1.2517e-06
1.2368e-06
1.2219e-06
1.2219e-06
1.2219e-06
1.20699e-06
1.19209e-06
1.20699e-06
1.2368e-06
1.2368e-06
1.20699e-06
1.19209e-06
1.2219e-06
1.2219e-06
1.2368e-06
1.2368e-06
1.2368e-06
1.2517e-06
1.20699e-06
1.2368e-06
1.2368e-06
1.2666e-06
1.2815e-06
1.2964e-06
1.3113e-06
1.3411e-06
1.37091e-06
1.37091e-06
1.38581e-06
1.41561e-06
1.41561e-06
1.43051e-06
1.37091e-06
1.35601e-06
1.3262e-06
1.3262e-06
1.3411e-06
1.37091e-06
1.3262e-06
1.35601e-06
1.37091e-06
1.38581e-06
1.35601e-06
1.37091e-06
1.37091e-06
1.3411e-06
1.35601e-06
1.37091e-06
1.38581e-06
1.40071e-06
1.38581e-06
1.40071e-06
1.41561e-06
1.3411e-06
)
;

boundaryField
{
    inlet
    {
        type            calculated;
        value           uniform -1.225e-06;
    }
    outlet
    {
        type            calculated;
        value           uniform 1.40071e-06;
    }
    yzfaces
    {
        type            empty;
    }
}


// ************************************************************************* //
