/*--------------------------------*- C++ -*----------------------------------*\
| =========                 |                                                 |
| \\      /  F ield         | foam-extend: Open Source CFD                    |
|  \\    /   O peration     | Version:     5.0                                |
|   \\  /    A nd           | Web:         http://www.foam-extend.org         |
|    \\/     M anipulation  |                                                 |
\*---------------------------------------------------------------------------*/
FoamFile
{
    version     2.0;
    format      ascii;
    class       volVectorField;
    location    "6";
    object      U.gas;
}
// * * * * * * * * * * * * * * * * * * * * * * * * * * * * * * * * * * * * * //

dimensions      [0 1 -1 0 0 0 0];

internalField   nonuniform List<vector> 
100
(
(9.17908e-05 0 0)
(0.00020523 0 0)
(0.000310792 0 0)
(0.000413027 0 0)
(0.000513167 0 0)
(0.000612105 0 0)
(0.000710537 0 0)
(0.000808455 0 0)
(0.000907356 0 0)
(0.00100684 0 0)
(0.00110763 0 0)
(0.00120941 0 0)
(0.00131256 0 0)
(0.00141396 0 0)
(0.00152216 0 0)
(0.00162603 0 0)
(0.00173647 0 0)
(0.00184839 0 0)
(0.00196454 0 0)
(0.00208271 0 0)
(0.00220875 0 0)
(0.00234517 0 0)
(0.00250193 0 0)
(0.00268149 0 0)
(0.00289857 0 0)
(0.0031856 0 0)
(0.00360718 0 0)
(0.00434243 0 0)
(0.00612645 0 0)
(0.011799 0 0)
(0.00515129 0 0)
(0.00500127 0 0)
(0.00504813 0 0)
(0.00507856 0 0)
(0.00507856 0 0)
(0.00507856 0 0)
(0.00507856 0 0)
(0.00510897 0 0)
(0.00516979 0 0)
(0.00510897 0 0)
(0.00498733 0 0)
(0.00504815 0 0)
(0.00513938 0 0)
(0.00516979 0 0)
(0.00516979 0 0)
(0.00510897 0 0)
(0.00507856 0 0)
(0.00501774 0 0)
(0.00498733 0 0)
(0.00498733 0 0)
(0.00495692 0 0)
(0.0048961 0 0)
(0.0048961 0 0)
(0.00498733 0 0)
(0.00504815 0 0)
(0.00498733 0 0)
(0.0048961 0 0)
(0.00492651 0 0)
(0.00498733 0 0)
(0.00501774 0 0)
(0.00504815 0 0)
(0.00504815 0 0)
(0.00507856 0 0)
(0.00501774 0 0)
(0.00498733 0 0)
(0.00504815 0 0)
(0.00510897 0 0)
(0.0052002 0 0)
(0.00526102 0 0)
(0.00532184 0 0)
(0.00541307 0 0)
(0.00553472 0 0)
(0.00559554 0 0)
(0.00562595 0 0)
(0.00571718 0 0)
(0.005778 0 0)
(0.00580841 0 0)
(0.00571718 0 0)
(0.00556513 0 0)
(0.0054739 0 0)
(0.00541307 0 0)
(0.00544349 0 0)
(0.00553472 0 0)
(0.00550431 0 0)
(0.0054739 0 0)
(0.00556513 0 0)
(0.00562595 0 0)
(0.00559554 0 0)
(0.00556513 0 0)
(0.00559554 0 0)
(0.00553472 0 0)
(0.00550431 0 0)
(0.00556513 0 0)
(0.00562595 0 0)
(0.00568677 0 0)
(0.00568677 0 0)
(0.00568677 0 0)
(0.00574759 0 0)
(0.00562595 0 0)
(0.00559554 0 0)
)
;

boundaryField
{
    inlet
    {
        type            fixedValue;
        value           uniform (0 0 0);
    }
    outlet
    {
        type            zeroGradient;
    }
    yzfaces
    {
        type            empty;
    }
}


// ************************************************************************* //
