/*--------------------------------*- C++ -*----------------------------------*\
| =========                 |                                                 |
| \\      /  F ield         | foam-extend: Open Source CFD                    |
|  \\    /   O peration     | Version:     5.0                                |
|   \\  /    A nd           | Web:         http://www.foam-extend.org         |
|    \\/     M anipulation  |                                                 |
\*---------------------------------------------------------------------------*/
FoamFile
{
    version     2.0;
    format      ascii;
    class       volScalarField;
    location    "8";
    object      alpha.gas;
}
// * * * * * * * * * * * * * * * * * * * * * * * * * * * * * * * * * * * * * //

dimensions      [0 0 0 0 0 0 0];

internalField   nonuniform List<scalar> 
100
(
9.46887e-05
0.000153502
0.000208386
0.000260243
0.000311321
0.000362782
0.000413158
0.00046342
0.000513336
0.000562993
0.000612967
0.000662297
0.000710623
0.000760771
0.000811798
0.000862649
0.000914657
0.000964849
0.00101545
0.00106568
0.00111438
0.00116483
0.00121717
0.00127219
0.00132837
0.00138531
0.00144193
0.00150156
0.00156371
0.00162832
0.00169564
0.0017691
0.00184915
0.00193998
0.0020458
0.00217419
0.00234075
0.00257859
0.00296361
0.00369599
0.00562113
0.014923
0.102522
0.188612
0.190023
0.190001
0.189994
0.190044
0.190023
0.189973
0.189969
0.189998
0.19
0.189971
0.190042
0.189998
0.18997
0.190024
0.189898
0.190002
0.19
0.189923
0.189947
0.189989
0.189973
0.189966
0.190094
0.189945
0.189887
0.190014
0.189996
0.190016
0.189967
0.190005
0.190045
0.189969
0.189997
0.189999
0.190017
0.189975
0.189996
0.190024
0.189947
0.190024
0.190027
0.189951
0.189997
0.189968
0.190049
0.19
0.189973
0.190046
0.19005
0.190019
0.189999
0.189947
0.189969
0.189917
0.189998
0.190106
)
;

boundaryField
{
    inlet
    {
        type            fixedValue;
        value           uniform 0;
    }
    outlet
    {
        type            zeroGradient;
    }
    yzfaces
    {
        type            empty;
    }
}


// ************************************************************************* //
