/*--------------------------------*- C++ -*----------------------------------*\
| =========                 |                                                 |
| \\      /  F ield         | foam-extend: Open Source CFD                    |
|  \\    /   O peration     | Version:     5.0                                |
|   \\  /    A nd           | Web:         http://www.foam-extend.org         |
|    \\/     M anipulation  |                                                 |
\*---------------------------------------------------------------------------*/
FoamFile
{
    version     2.0;
    format      ascii;
    class       volScalarField;
    location    "8";
    object      alpha.water;
}
// * * * * * * * * * * * * * * * * * * * * * * * * * * * * * * * * * * * * * //

dimensions      [0 0 0 0 0 0 0];

internalField   nonuniform List<scalar> 
100
(
0.199905
0.199846
0.199792
0.19974
0.199689
0.199637
0.199587
0.199537
0.199487
0.199437
0.199387
0.199338
0.199289
0.199239
0.199188
0.199137
0.199085
0.199035
0.198985
0.198934
0.198886
0.198835
0.198783
0.198728
0.198672
0.198615
0.198558
0.198498
0.198436
0.198372
0.198304
0.198231
0.198151
0.19806
0.197954
0.197826
0.197659
0.197421
0.197036
0.196304
0.194379
0.185077
0.0974779
0.0113879
0.00997725
0.00999899
0.0100058
0.00995575
0.00997703
0.0100266
0.0100315
0.0100019
0.00999959
0.0100289
0.00995765
0.0100021
0.0100297
0.00997589
0.0101017
0.00999842
0.0100004
0.0100771
0.0100533
0.0100108
0.010027
0.0100336
0.00990571
0.0100553
0.0101126
0.00998612
0.0100036
0.00998409
0.0100335
0.00999526
0.00995537
0.0100309
0.0100034
0.0100015
0.00998331
0.010025
0.0100042
0.00997645
0.0100526
0.00997646
0.00997331
0.0100495
0.0100028
0.0100324
0.00995066
0.0100001
0.0100273
0.00995395
0.00995011
0.00998129
0.0100012
0.0100532
0.0100311
0.0100826
0.0100016
0.00989392
)
;

boundaryField
{
    inlet
    {
        type            fixedValue;
        value           uniform 0.2;
    }
    outlet
    {
        type            zeroGradient;
    }
    yzfaces
    {
        type            empty;
    }
}


// ************************************************************************* //
