/*--------------------------------*- C++ -*----------------------------------*\
| =========                 |                                                 |
| \\      /  F ield         | foam-extend: Open Source CFD                    |
|  \\    /   O peration     | Version:     5.0                                |
|   \\  /    A nd           | Web:         http://www.foam-extend.org         |
|    \\/     M anipulation  |                                                 |
\*---------------------------------------------------------------------------*/
FoamFile
{
    version     2.0;
    format      ascii;
    class       volScalarField;
    location    "8";
    object      CO2.water;
}
// * * * * * * * * * * * * * * * * * * * * * * * * * * * * * * * * * * * * * //

dimensions      [0 0 0 0 0 0 0];

internalField   nonuniform List<scalar> 
100
(
5.27635e-17
1.59966e-15
2.4561e-14
2.5473e-13
2.0014e-12
1.27079e-11
6.80479e-11
3.15776e-10
1.2965e-09
4.78179e-09
1.605e-08
4.94828e-08
1.41491e-07
3.76773e-07
9.42225e-07
2.22424e-06
4.96865e-06
1.05716e-05
2.14448e-05
4.16593e-05
7.77152e-05
0.000139491
0.000241523
0.000403905
0.0006548
0.00102982
0.00157477
0.00234259
0.00339654
0.00480557
0.00664328
0.00898331
0.0118992
0.0154406
0.0196687
0.0246202
0.03029
0.0366607
0.0436876
0.0512911
0.0590408
0.0648381
0.0411887
0.0105911
0.0100004
0.00999796
0.00999937
0.01
0.0100012
0.00999898
0.0100015
0.00999843
0.00999862
0.0100002
0.0100004
0.00999963
0.00999949
0.00999974
0.00999953
0.00999987
0.0100008
0.00999938
0.00999997
0.00999939
0.00999963
0.00999913
0.00999976
0.0100005
0.00999988
0.00999958
0.010001
0.0100004
0.0100002
0.00999958
0.00999952
0.0100002
0.0100012
0.00999941
0.0100007
0.00999837
0.0100016
0.00999918
0.0100006
0.0099992
0.00999878
0.0100012
0.0100002
0.0100005
0.00999897
0.0100016
0.00999895
0.0100005
0.00999955
0.0100001
0.00999991
0.0100001
0.00999935
0.00999982
0.0100005
0.00999646
)
;

boundaryField
{
    inlet
    {
        type            fixedValue;
        value           uniform 0;
    }
    outlet
    {
        type            zeroGradient;
    }
    yzfaces
    {
        type            empty;
    }
}


// ************************************************************************* //
