/*--------------------------------*- C++ -*----------------------------------*\
| =========                 |                                                 |
| \\      /  F ield         | foam-extend: Open Source CFD                    |
|  \\    /   O peration     | Version:     5.0                                |
|   \\  /    A nd           | Web:         http://www.foam-extend.org         |
|    \\/     M anipulation  |                                                 |
\*---------------------------------------------------------------------------*/
FoamFile
{
    version     2.0;
    format      ascii;
    class       surfaceScalarField;
    location    "8";
    object      phi;
}
// * * * * * * * * * * * * * * * * * * * * * * * * * * * * * * * * * * * * * //

dimensions      [0 3 -1 0 0 0 0];

internalField   nonuniform List<scalar> 
99
(
1.22507e-06
1.2247e-06
1.22528e-06
1.22448e-06
1.22438e-06
1.22485e-06
1.2248e-06
1.22449e-06
1.22491e-06
1.2257e-06
1.22456e-06
1.22554e-06
1.22533e-06
1.22566e-06
1.22592e-06
1.2252e-06
1.22543e-06
1.22504e-06
1.22498e-06
1.22472e-06
1.22523e-06
1.22616e-06
1.2256e-06
1.22638e-06
1.22667e-06
1.22661e-06
1.22717e-06
1.22728e-06
1.22714e-06
1.22713e-06
1.22757e-06
1.22693e-06
1.22675e-06
1.22665e-06
1.22636e-06
1.22589e-06
1.22587e-06
1.22623e-06
1.22503e-06
1.2251e-06
1.22546e-06
1.22502e-06
1.23241e-06
1.2441e-06
1.21511e-06
1.23653e-06
1.22944e-06
1.21516e-06
1.20702e-06
1.22939e-06
1.24361e-06
1.21511e-06
1.22197e-06
1.21475e-06
1.1779e-06
1.18405e-06
1.20699e-06
1.18411e-06
1.22834e-06
1.20672e-06
1.19187e-06
1.22752e-06
1.23716e-06
1.2382e-06
1.23646e-06
1.25887e-06
1.19387e-06
1.25143e-06
1.27306e-06
1.23826e-06
1.25112e-06
1.21484e-06
1.2291e-06
1.21355e-06
1.20769e-06
1.2145e-06
1.20645e-06
1.19245e-06
1.1928e-06
1.21421e-06
1.21388e-06
1.21454e-06
1.24308e-06
1.22912e-06
1.2065e-06
1.22797e-06
1.21425e-06
1.244e-06
1.19306e-06
1.2142e-06
1.25149e-06
1.22259e-06
1.20739e-06
1.20798e-06
1.20679e-06
1.22105e-06
1.22909e-06
1.26656e-06
1.22907e-06
)
;

boundaryField
{
    inlet
    {
        type            calculated;
        value           uniform -1.225e-06;
    }
    outlet
    {
        type            calculated;
        value           uniform 1.1776e-06;
    }
    yzfaces
    {
        type            empty;
    }
}


// ************************************************************************* //
