/*--------------------------------*- C++ -*----------------------------------*\
| =========                 |                                                 |
| \\      /  F ield         | foam-extend: Open Source CFD                    |
|  \\    /   O peration     | Version:     5.0                                |
|   \\  /    A nd           | Web:         http://www.foam-extend.org         |
|    \\/     M anipulation  |                                                 |
\*---------------------------------------------------------------------------*/
FoamFile
{
    version     2.0;
    format      ascii;
    class       volScalarField;
    location    "8";
    object      S.gas;
}
// * * * * * * * * * * * * * * * * * * * * * * * * * * * * * * * * * * * * * //

dimensions      [0 0 0 0 0 0 0];

internalField   nonuniform List<scalar> 
100
(
0.000473443
0.000767511
0.00104193
0.00130122
0.0015566
0.00181391
0.00206579
0.0023171
0.00256668
0.00281497
0.00306483
0.00331149
0.00355312
0.00380385
0.00405899
0.00431324
0.00457329
0.00482424
0.00507727
0.00532841
0.00557192
0.00582416
0.00608585
0.00636093
0.00664185
0.00692657
0.00720965
0.00750779
0.00781856
0.00814158
0.00847819
0.00884548
0.00924573
0.00969988
0.010229
0.0108709
0.0117037
0.0128929
0.014818
0.01848
0.0281057
0.0746149
0.51261
0.943061
0.950114
0.950005
0.949971
0.950221
0.950115
0.949867
0.949843
0.949991
0.950002
0.949856
0.950212
0.949989
0.949851
0.950121
0.949491
0.950008
0.949998
0.949614
0.949734
0.949946
0.949865
0.949832
0.950471
0.949723
0.949437
0.950069
0.949982
0.95008
0.949833
0.950024
0.950223
0.949845
0.949983
0.949993
0.950083
0.949875
0.949979
0.950118
0.949737
0.950118
0.950133
0.949753
0.949986
0.949838
0.950247
0.95
0.949864
0.95023
0.950249
0.950094
0.949994
0.949734
0.949844
0.949587
0.949992
0.95053
)
;

boundaryField
{
    inlet
    {
        type            calculated;
        value           uniform 0;
    }
    outlet
    {
        type            calculated;
        value           uniform 0.95053;
    }
    yzfaces
    {
        type            empty;
    }
}


// ************************************************************************* //
