/*--------------------------------*- C++ -*----------------------------------*\
| =========                 |                                                 |
| \\      /  F ield         | foam-extend: Open Source CFD                    |
|  \\    /   O peration     | Version:     5.0                                |
|   \\  /    A nd           | Web:         http://www.foam-extend.org         |
|    \\/     M anipulation  |                                                 |
\*---------------------------------------------------------------------------*/
FoamFile
{
    version     2.0;
    format      ascii;
    class       volVectorField;
    location    "8";
    object      U.gas;
}
// * * * * * * * * * * * * * * * * * * * * * * * * * * * * * * * * * * * * * //

dimensions      [0 1 -1 0 0 0 0];

internalField   nonuniform List<vector> 
100
(
(6.73061e-05 0 0)
(0.00015063 0 0)
(0.000228665 0 0)
(0.000303907 0 0)
(0.000376542 0 0)
(0.000448792 0 0)
(0.000521583 0 0)
(0.000592975 0 0)
(0.000664503 0 0)
(0.000736502 0 0)
(0.000807176 0 0)
(0.000878495 0 0)
(0.000949254 0 0)
(0.00101901 0 0)
(0.00109166 0 0)
(0.00116412 0 0)
(0.0012374 0 0)
(0.0013123 0 0)
(0.00138471 0 0)
(0.00145791 0 0)
(0.0015302 0 0)
(0.00160102 0 0)
(0.00167308 0 0)
(0.00175028 0 0)
(0.0018324 0 0)
(0.001913 0 0)
(0.0019947 0 0)
(0.0020773 0 0)
(0.00216386 0 0)
(0.00225401 0 0)
(0.00234925 0 0)
(0.00244777 0 0)
(0.00255286 0 0)
(0.00266945 0 0)
(0.00280335 0 0)
(0.00295763 0 0)
(0.00314566 0 0)
(0.00339579 0 0)
(0.00376182 0 0)
(0.00438706 0 0)
(0.00579287 0 0)
(0.0105534 0 0)
(0.00614465 0 0)
(0.00531743 0 0)
(0.00528201 0 0)
(0.00526638 0 0)
(0.00529736 0 0)
(0.00525007 0 0)
(0.00520251 0 0)
(0.00523444 0 0)
(0.00531319 0 0)
(0.00528169 0 0)
(0.00523513 0 0)
(0.00523516 0 0)
(0.00513855 0 0)
(0.00507382 0 0)
(0.00513706 0 0)
(0.00513572 0 0)
(0.00518501 0 0)
(0.00523076 0 0)
(0.00515246 0 0)
(0.00519925 0 0)
(0.00529592 0 0)
(0.00531768 0 0)
(0.00531662 0 0)
(0.00536121 0 0)
(0.00526617 0 0)
(0.00525433 0 0)
(0.00542612 0 0)
(0.00539422 0 0)
(0.0053476 0 0)
(0.00529675 0 0)
(0.00525081 0 0)
(0.00524697 0 0)
(0.0051999 0 0)
(0.00520402 0 0)
(0.0052006 0 0)
(0.00515317 0 0)
(0.00512335 0 0)
(0.00517122 0 0)
(0.00521595 0 0)
(0.0052159 0 0)
(0.00528073 0 0)
(0.00530994 0 0)
(0.00523129 0 0)
(0.00523091 0 0)
(0.00524627 0 0)
(0.00528152 0 0)
(0.00523374 0 0)
(0.0051711 0 0)
(0.00529738 0 0)
(0.00531335 0 0)
(0.00521852 0 0)
(0.00518801 0 0)
(0.00518726 0 0)
(0.00521675 0 0)
(0.00526405 0 0)
(0.0053633 0 0)
(0.00536097 0 0)
(0.00516693 0 0)
)
;

boundaryField
{
    inlet
    {
        type            fixedValue;
        value           uniform (0 0 0);
    }
    outlet
    {
        type            zeroGradient;
    }
    yzfaces
    {
        type            empty;
    }
}


// ************************************************************************* //
