/*--------------------------------*- C++ -*----------------------------------*\
| =========                 |                                                 |
| \\      /  F ield         | foam-extend: Open Source CFD                    |
|  \\    /   O peration     | Version:     5.0                                |
|   \\  /    A nd           | Web:         http://www.foam-extend.org         |
|    \\/     M anipulation  |                                                 |
\*---------------------------------------------------------------------------*/
FoamFile
{
    version     2.0;
    format      ascii;
    class       volVectorField;
    location    "8";
    object      U.water;
}
// * * * * * * * * * * * * * * * * * * * * * * * * * * * * * * * * * * * * * //

dimensions      [0 1 -1 0 0 0 0];

internalField   nonuniform List<vector> 
100
(
(0.00500249 0 0)
(0.00500327 0 0)
(0.00500494 0 0)
(0.00500563 0 0)
(0.00500488 0 0)
(0.00500669 0 0)
(0.00500856 0 0)
(0.00500879 0 0)
(0.00500994 0 0)
(0.00501329 0 0)
(0.00501341 0 0)
(0.00501388 0 0)
(0.00501622 0 0)
(0.00501723 0 0)
(0.00501916 0 0)
(0.0050189 0 0)
(0.00501856 0 0)
(0.00501884 0 0)
(0.00501849 0 0)
(0.00501837 0 0)
(0.00501934 0 0)
(0.00502276 0 0)
(0.00502398 0 0)
(0.00502487 0 0)
(0.00502745 0 0)
(0.00502826 0 0)
(0.00502959 0 0)
(0.00503126 0 0)
(0.00503144 0 0)
(0.00503134 0 0)
(0.00503234 0 0)
(0.00503203 0 0)
(0.00503041 0 0)
(0.00502984 0 0)
(0.00502892 0 0)
(0.0050271 0 0)
(0.0050256 0 0)
(0.00502529 0 0)
(0.00502124 0 0)
(0.00501182 0 0)
(0.00497826 0 0)
(0.0045533 0 0)
(0.00382723 0 0)
(0.00069274 0 0)
(5.70314e-06 0 0)
(4.88216e-06 0 0)
(4.89729e-06 0 0)
(4.90337e-06 0 0)
(4.83709e-06 0 0)
(4.8501e-06 0 0)
(4.92169e-06 0 0)
(4.89924e-06 0 0)
(4.86333e-06 0 0)
(4.84906e-06 0 0)
(4.80921e-06 0 0)
(4.69503e-06 0 0)
(4.719e-06 0 0)
(4.74449e-06 0 0)
(4.74051e-06 0 0)
(4.84517e-06 0 0)
(4.75155e-06 0 0)
(4.75211e-06 0 0)
(4.89256e-06 0 0)
(4.98771e-06 0 0)
(4.94249e-06 0 0)
(4.93914e-06 0 0)
(4.92815e-06 0 0)
(4.85476e-06 0 0)
(4.99235e-06 0 0)
(5.05573e-06 0 0)
(4.99113e-06 0 0)
(4.92648e-06 0 0)
(4.8468e-06 0 0)
(4.82809e-06 0 0)
(4.82892e-06 0 0)
(4.82963e-06 0 0)
(4.82427e-06 0 0)
(4.78808e-06 0 0)
(4.77823e-06 0 0)
(4.79534e-06 0 0)
(4.84228e-06 0 0)
(4.83713e-06 0 0)
(4.83747e-06 0 0)
(4.89305e-06 0 0)
(4.82023e-06 0 0)
(4.78365e-06 0 0)
(4.86164e-06 0 0)
(4.8843e-06 0 0)
(4.88715e-06 0 0)
(4.80728e-06 0 0)
(4.88671e-06 0 0)
(4.94146e-06 0 0)
(4.85015e-06 0 0)
(4.81637e-06 0 0)
(4.80674e-06 0 0)
(4.80031e-06 0 0)
(4.84788e-06 0 0)
(4.91516e-06 0 0)
(4.97357e-06 0 0)
(4.84019e-06 0 0)
)
;

boundaryField
{
    inlet
    {
        type            fixedValue;
        value           uniform (0.005 0 0);
    }
    outlet
    {
        type            zeroGradient;
    }
    yzfaces
    {
        type            empty;
    }
}


// ************************************************************************* //
