/*--------------------------------*- C++ -*----------------------------------*\
| =========                 |                                                 |
| \\      /  F ield         | foam-extend: Open Source CFD                    |
|  \\    /   O peration     | Version:     5.0                                |
|   \\  /    A nd           | Web:         http://www.foam-extend.org         |
|    \\/     M anipulation  |                                                 |
\*---------------------------------------------------------------------------*/
FoamFile
{
    version     2.0;
    format      ascii;
    class       volVectorField;
    location    "8";
    object      U.water;
}
// * * * * * * * * * * * * * * * * * * * * * * * * * * * * * * * * * * * * * //

dimensions      [0 1 -1 0 0 0 0];

internalField   nonuniform List<vector> 
100
(
(5.51459e-08 0 0)
(2.32243e-05 0 0)
(4.94746e-05 0 0)
(5.59331e-05 0 0)
(6.18723e-05 0 0)
(8.07879e-05 0 0)
(9.58271e-05 0 0)
(0.000114895 0 0)
(0.000143689 0 0)
(0.000152029 0 0)
(0.000164626 0 0)
(0.000185522 0 0)
(0.000198046 0 0)
(0.000206512 0 0)
(0.000220149 0 0)
(0.000243211 0 0)
(0.000267453 0 0)
(0.000280899 0 0)
(0.000290134 0 0)
(0.00030109 0 0)
(0.000314541 0 0)
(0.000339374 0 0)
(0.00036193 0 0)
(0.0003748 0 0)
(0.000391384 0 0)
(0.000406839 0 0)
(0.000427264 0 0)
(0.000446274 0 0)
(0.000464268 0 0)
(0.000477307 0 0)
(0.000491669 0 0)
(0.000506199 0 0)
(0.00051837 0 0)
(0.000539831 0 0)
(0.00055653 0 0)
(0.000579295 0 0)
(0.000591331 0 0)
(0.000601984 0 0)
(0.000623956 0 0)
(0.000643869 0 0)
(0.000658836 0 0)
(0.000673298 0 0)
(0.000692262 0 0)
(0.000708176 0 0)
(0.000715903 0 0)
(0.000729442 0 0)
(0.000750839 0 0)
(0.000765648 0 0)
(0.000777618 0 0)
(0.000788132 0 0)
(0.000803768 0 0)
(0.000824784 0 0)
(0.000841489 0 0)
(0.000859439 0 0)
(0.000865672 0 0)
(0.000876714 0 0)
(0.000899835 0 0)
(0.000919566 0 0)
(0.000930691 0 0)
(0.000940925 0 0)
(0.000964984 0 0)
(0.000981596 0 0)
(0.000991049 0 0)
(0.00100237 0 0)
(0.00101693 0 0)
(0.00102745 0 0)
(0.00103749 0 0)
(0.00105853 0 0)
(0.00107487 0 0)
(0.00108923 0 0)
(0.00110707 0 0)
(0.00111804 0 0)
(0.00112901 0 0)
(0.00114214 0 0)
(0.00115742 0 0)
(0.00117236 0 0)
(0.0011877 0 0)
(0.00120308 0 0)
(0.00121831 0 0)
(0.00122811 0 0)
(0.00123901 0 0)
(0.00125539 0 0)
(0.00127007 0 0)
(0.00128297 0 0)
(0.00129475 0 0)
(0.00130746 0 0)
(0.0013195 0 0)
(0.00133265 0 0)
(0.00134904 0 0)
(0.00136334 0 0)
(0.00137518 0 0)
(0.00138872 0 0)
(0.00140211 0 0)
(0.00141682 0 0)
(0.00143373 0 0)
(0.00144485 0 0)
(0.00145455 0 0)
(0.00147277 0 0)
(0.00148926 0 0)
(0.00150065 0 0)
)
;

boundaryField
{
    inlet
    {
        type            fixedValue;
        value           uniform (0 0 0);
    }
    outlet
    {
        type            zeroGradient;
    }
    yzfaces
    {
        type            empty;
    }
}


// ************************************************************************* //
