/*--------------------------------*- C++ -*----------------------------------*\
| =========                 |                                                 |
| \\      /  F ield         | foam-extend: Open Source CFD                    |
|  \\    /   O peration     | Version:     5.0                                |
|   \\  /    A nd           | Web:         http://www.foam-extend.org         |
|    \\/     M anipulation  |                                                 |
\*---------------------------------------------------------------------------*/
FoamFile
{
    version     2.0;
    format      ascii;
    class       volScalarField;
    location    "8";
    object      YH2O;
}
// * * * * * * * * * * * * * * * * * * * * * * * * * * * * * * * * * * * * * //

dimensions      [0 0 0 0 0 0 0];

internalField   nonuniform List<scalar> 
100
(
-0.00343334
0.00331432
-0.000296237
0.00284028
0.000755141
0.00326542
-0.000945095
0.000810473
0.00204197
0.00206241
-0.00144948
0.00165992
-0.0012115
0.00354451
0.00138362
0.000252814
0.00225319
0.00239227
-0.000413611
0.00199069
-0.00299688
0.00353692
-0.00392587
0.00895794
-0.00757168
0.00777152
-0.00781501
0.00575776
-0.0043622
0.00495567
-0.00579306
0.00827555
-0.0069148
0.00967733
-0.00639104
0.00881301
-0.00522253
0.0043239
-0.00306679
0.00269713
-0.00330479
0.00222044
-0.000587318
0.00190863
-0.00165218
-0.00249177
-0.000999194
-0.00347182
-0.00156777
-0.00208669
-0.00129007
-0.00279607
-0.00197707
-0.00191399
-0.000870597
-0.00348172
-0.000813644
-0.00169742
-0.00172925
-0.00141324
-0.00293215
-0.00140462
-0.0019486
-0.000212392
-0.00292034
-0.000671705
-0.000149365
-0.000453133
0.000560161
-0.00138267
0.00168983
-0.00221697
0.00256626
-0.00306211
0.00113738
-0.00149772
-0.000826573
-0.000673867
6.60613e-05
-0.00191632
0.00129053
-0.00138678
0.00210639
-0.00166853
-9.24527e-06
0.000903183
0.0006299
-0.000623999
-0.00116704
0.00101164
-0.00107457
0.000711312
6.5644e-06
-0.00137331
-0.000522936
-0.00132259
-0.000846563
-0.00160561
-0.00101514
-0.000853463
)
;

boundaryField
{
    inlet
    {
        type            calculated;
        value           uniform 0;
    }
    outlet
    {
        type            calculated;
        value           uniform -0.000853463;
    }
    yzfaces
    {
        type            empty;
    }
}


// ************************************************************************* //
