/*--------------------------------*- C++ -*----------------------------------*\
| =========                 |                                                 |
| \\      /  F ield         | foam-extend: Open Source CFD                    |
|  \\    /   O peration     | Version:     5.0                                |
|   \\  /    A nd           | Web:         http://www.foam-extend.org         |
|    \\/     M anipulation  |                                                 |
\*---------------------------------------------------------------------------*/
FoamFile
{
    version     2.0;
    format      ascii;
    class       volScalarField;
    location    "4";
    object      XH2O;
}
// * * * * * * * * * * * * * * * * * * * * * * * * * * * * * * * * * * * * * //

dimensions      [0 0 0 0 0 0 0];

internalField   nonuniform List<scalar> 
100
(
1.00264
0.998587
1.00047
0.989215
0.999435
0.991293
0.997614
0.988398
0.999497
0.981883
1.00224
0.980722
0.993922
0.97966
0.98471
0.963851
0.92424
0.825777
0.676241
0.533067
0.405426
0.308836
0.206179
0.132868
0.0774851
0.0382866
0.0140121
0.00309839
0.000318109
2.62365e-05
2.0363e-06
2.59379e-08
2.42689e-11
1.8736e-15
1.21499e-20
6.84187e-27
3.33443e-34
1.42602e-42
5.31655e-52
1.74311e-62
4.97346e-74
1.24896e-86
2.70856e-100
5.09274e-115
8.2984e-131
1.17262e-147
1.44867e-165
1.54663e-184
1.41226e-204
1.1228e-225
7.62821e-248
4.42888e-271
2.19102e-295
9.3576e-321
0
0
0
0
0
0
0
0
0
0
0
0
0
0
0
0
0
0
0
0
0
0
0
0
0
0
0
0
0
0
0
0
0
0
0
0
0
0
0
0
0
0
0
0
0
0
)
;

boundaryField
{
    inlet
    {
        type            fixedValue;
        value           uniform 1;
    }
    outlet
    {
        type            zeroGradient;
    }
    yzfaces
    {
        type            empty;
    }
}


// ************************************************************************* //
