/*--------------------------------*- C++ -*----------------------------------*\
| =========                 |                                                 |
| \\      /  F ield         | foam-extend: Open Source CFD                    |
|  \\    /   O peration     | Version:     5.0                                |
|   \\  /    A nd           | Web:         http://www.foam-extend.org         |
|    \\/     M anipulation  |                                                 |
\*---------------------------------------------------------------------------*/
FoamFile
{
    version     2.0;
    format      ascii;
    class       volScalarField;
    location    "4";
    object      YH2O;
}
// * * * * * * * * * * * * * * * * * * * * * * * * * * * * * * * * * * * * * //

dimensions      [0 0 0 0 0 0 0];

internalField   nonuniform List<scalar> 
100
(
0.984694
1.01846
0.982265
1.03075
0.963367
1.00988
0.991393
0.987775
1.00126
0.995564
0.96697
1.02037
0.974394
0.966954
1.02782
0.904805
0.990202
0.754049
0.71053
0.538137
0.384115
0.319739
0.154039
0.194695
0.0565138
0.0503822
-0.0411126
0.08286
-0.0514269
-0.00435492
-0.0404166
0.0347899
0.000896817
0.022827
-0.0198335
0.00893603
0.00558745
-0.0128095
0.00918346
0.0801401
-0.0511269
0.109754
-0.048745
0.0673837
-0.0632548
0.0360736
-0.0276118
-0.0218298
-0.00458558
0.0281659
-0.0798328
-0.00942534
-0.0494366
0.035064
-0.0169209
-0.0166635
-0.000751111
-0.000960046
0.0379489
0.00998349
-0.0123989
0.0394981
-0.04477
0.00968796
-0.021868
-0.0042369
0.0545842
-0.00245382
0.0308074
-0.0468417
-0.0126226
0.00885097
-0.00990188
0.0496406
-0.0740498
0.069786
-0.0628596
0.00613828
0.00464232
-0.0186798
-0.0254029
0.0255794
-0.0236335
-0.0153369
-0.0194268
0.0181617
-0.0151677
0.052099
-0.0258381
0.066472
-0.015684
0.0450463
-0.0110009
0.0426019
-0.000631436
0.0211903
0.0315063
-0.0326671
0.00248088
0.00126351
)
;

boundaryField
{
    inlet
    {
        type            calculated;
        value           uniform 1;
    }
    outlet
    {
        type            calculated;
        value           uniform 0.00126351;
    }
    yzfaces
    {
        type            empty;
    }
}


// ************************************************************************* //
