/*--------------------------------*- C++ -*----------------------------------*\
| =========                 |                                                 |
| \\      /  F ield         | foam-extend: Open Source CFD                    |
|  \\    /   O peration     | Version:     5.0                                |
|   \\  /    A nd           | Web:         http://www.foam-extend.org         |
|    \\/     M anipulation  |                                                 |
\*---------------------------------------------------------------------------*/
FoamFile
{
    version     2.0;
    format      ascii;
    class       volScalarField;
    location    "9";
    object      alpha.gas;
}
// * * * * * * * * * * * * * * * * * * * * * * * * * * * * * * * * * * * * * //

dimensions      [0 0 0 0 0 0 0];

internalField   nonuniform List<scalar> 
100
(
8.35668e-05
0.000135198
0.000183579
0.000229721
0.000274192
0.000318355
0.000363011
0.000408207
0.000452399
0.000496135
0.000540528
0.000583482
0.000627804
0.000670307
0.000713321
0.000755831
0.000800405
0.00084505
0.000890335
0.000936404
0.000982608
0.00102738
0.00107037
0.00111391
0.00115823
0.00120373
0.00124974
0.00129655
0.00134589
0.00139614
0.00144722
0.00149918
0.00155194
0.0016067
0.00166436
0.00172555
0.00179249
0.00186427
0.00194415
0.00203891
0.00215622
0.00230795
0.00252141
0.00284532
0.00341765
0.00475624
0.00994199
0.060437
0.182658
0.189918
0.189989
0.189919
0.189994
0.190018
0.189994
0.19002
0.189972
0.190043
0.189986
0.189963
0.190015
0.190038
0.189942
0.190019
0.189986
0.189967
0.190042
0.190065
0.189968
0.190019
0.189974
0.189942
0.19
0.189972
0.19002
0.189994
0.190045
0.189947
0.189994
0.190083
0.189971
0.18997
0.189948
0.189973
0.190041
0.189966
0.190014
0.190038
0.189944
0.190044
0.189966
0.190016
0.19009
0.19006
0.19002
0.190023
0.190019
0.189963
0.190011
0.189758
)
;

boundaryField
{
    inlet
    {
        type            fixedValue;
        value           uniform 0;
    }
    outlet
    {
        type            zeroGradient;
    }
    yzfaces
    {
        type            empty;
    }
}


// ************************************************************************* //
