/*--------------------------------*- C++ -*----------------------------------*\
| =========                 |                                                 |
| \\      /  F ield         | foam-extend: Open Source CFD                    |
|  \\    /   O peration     | Version:     5.0                                |
|   \\  /    A nd           | Web:         http://www.foam-extend.org         |
|    \\/     M anipulation  |                                                 |
\*---------------------------------------------------------------------------*/
FoamFile
{
    version     2.0;
    format      ascii;
    class       volScalarField;
    location    "9";
    object      alpha.water;
}
// * * * * * * * * * * * * * * * * * * * * * * * * * * * * * * * * * * * * * //

dimensions      [0 0 0 0 0 0 0];

internalField   nonuniform List<scalar> 
100
(
0.199916
0.199865
0.199816
0.19977
0.199726
0.199682
0.199637
0.199592
0.199548
0.199504
0.199459
0.199417
0.199372
0.19933
0.199287
0.199244
0.1992
0.199155
0.19911
0.199064
0.199017
0.198973
0.19893
0.198886
0.198842
0.198796
0.19875
0.198703
0.198654
0.198604
0.198553
0.198501
0.198448
0.198393
0.198336
0.198274
0.198208
0.198136
0.198056
0.197961
0.197844
0.197692
0.197479
0.197155
0.196582
0.195244
0.190058
0.139563
0.0173416
0.0100819
0.0100111
0.0100807
0.0100062
0.00998191
0.0100059
0.00998041
0.0100277
0.00995692
0.0100136
0.0100369
0.00998533
0.0099617
0.0100584
0.00998143
0.010014
0.0100334
0.00995756
0.00993484
0.0100324
0.00998128
0.0100265
0.0100581
0.0100003
0.010028
0.00998046
0.0100059
0.00995495
0.0100527
0.0100055
0.00991691
0.0100292
0.0100304
0.0100525
0.0100273
0.00995879
0.010034
0.00998588
0.00996236
0.0100557
0.00995643
0.010034
0.00998364
0.00991045
0.00994
0.00997978
0.0099772
0.00998145
0.0100371
0.00998852
0.0102417
)
;

boundaryField
{
    inlet
    {
        type            fixedValue;
        value           uniform 0.2;
    }
    outlet
    {
        type            zeroGradient;
    }
    yzfaces
    {
        type            empty;
    }
}


// ************************************************************************* //
