/*--------------------------------*- C++ -*----------------------------------*\
| =========                 |                                                 |
| \\      /  F ield         | foam-extend: Open Source CFD                    |
|  \\    /   O peration     | Version:     5.0                                |
|   \\  /    A nd           | Web:         http://www.foam-extend.org         |
|    \\/     M anipulation  |                                                 |
\*---------------------------------------------------------------------------*/
FoamFile
{
    version     2.0;
    format      ascii;
    class       volScalarField;
    location    "9";
    object      CO2.water;
}
// * * * * * * * * * * * * * * * * * * * * * * * * * * * * * * * * * * * * * //

dimensions      [0 0 0 0 0 0 0];

internalField   nonuniform List<scalar> 
100
(
8.12778e-19
2.74797e-17
4.69307e-16
5.40727e-15
4.72017e-14
3.32746e-13
1.97311e-12
1.01264e-11
4.59438e-11
1.8715e-10
6.9216e-10
2.35296e-09
7.39157e-09
2.16603e-08
5.9446e-08
1.53798e-07
3.76437e-07
8.75489e-07
1.94116e-06
4.11383e-06
8.35878e-06
1.63325e-05
3.07584e-05
5.58971e-05
9.82273e-05
0.000167291
0.000276456
0.000444284
0.000694658
0.0010587
0.00157402
0.00228729
0.0032495
0.00451917
0.00615813
0.0082279
0.0107872
0.0139014
0.0176218
0.0219713
0.0269682
0.0326163
0.0389177
0.0458183
0.0531883
0.0608336
0.0676208
0.0573723
0.0130723
0.0100048
0.0100011
0.00999911
0.00999889
0.00999992
0.0100005
0.00999957
0.00999919
0.00999996
0.00999979
0.01
0.0100007
0.00999997
0.0099997
0.0099994
0.01
0.00999904
0.00999986
0.0100007
0.00999976
0.00999943
0.010001
0.0100007
0.0100004
0.00999991
0.00999937
0.0100006
0.0100008
0.00999956
0.0100003
0.00999923
0.0100011
0.00999971
0.0100008
0.00999912
0.00999831
0.0100009
0.01
0.0100009
0.00999855
0.0100021
0.00999849
0.01
0.0100001
0.00999997
0.0100001
0.0100002
0.00999971
0.00999971
0.0100001
0.00999631
)
;

boundaryField
{
    inlet
    {
        type            fixedValue;
        value           uniform 0;
    }
    outlet
    {
        type            zeroGradient;
    }
    yzfaces
    {
        type            empty;
    }
}


// ************************************************************************* //
