/*--------------------------------*- C++ -*----------------------------------*\
| =========                 |                                                 |
| \\      /  F ield         | foam-extend: Open Source CFD                    |
|  \\    /   O peration     | Version:     5.0                                |
|   \\  /    A nd           | Web:         http://www.foam-extend.org         |
|    \\/     M anipulation  |                                                 |
\*---------------------------------------------------------------------------*/
FoamFile
{
    version     2.0;
    format      ascii;
    class       surfaceScalarField;
    location    "9";
    object      phi;
}
// * * * * * * * * * * * * * * * * * * * * * * * * * * * * * * * * * * * * * //

dimensions      [0 3 -1 0 0 0 0];

internalField   nonuniform List<scalar> 
99
(
1.22502e-06
1.2251e-06
1.22503e-06
1.2249e-06
1.22523e-06
1.22547e-06
1.22639e-06
1.22619e-06
1.22639e-06
1.22583e-06
1.22608e-06
1.22622e-06
1.22636e-06
1.22586e-06
1.22694e-06
1.22711e-06
1.22759e-06
1.22791e-06
1.22751e-06
1.22726e-06
1.22699e-06
1.22683e-06
1.22667e-06
1.22725e-06
1.22781e-06
1.22726e-06
1.22754e-06
1.22762e-06
1.22652e-06
1.2263e-06
1.22602e-06
1.22626e-06
1.22609e-06
1.22642e-06
1.22615e-06
1.2271e-06
1.22672e-06
1.22722e-06
1.22747e-06
1.22716e-06
1.22732e-06
1.22909e-06
1.22848e-06
1.22815e-06
1.22826e-06
1.22744e-06
1.22762e-06
1.22914e-06
1.20834e-06
1.26489e-06
1.2589e-06
1.29641e-06
1.2887e-06
1.28127e-06
1.28785e-06
1.28155e-06
1.29566e-06
1.26641e-06
1.28279e-06
1.29706e-06
1.30389e-06
1.3042e-06
1.3185e-06
1.31137e-06
1.31914e-06
1.33343e-06
1.31943e-06
1.30485e-06
1.33366e-06
1.31912e-06
1.31788e-06
1.35484e-06
1.33257e-06
1.34803e-06
1.33349e-06
1.33343e-06
1.31944e-06
1.35483e-06
1.3409e-06
1.32103e-06
1.34774e-06
1.36354e-06
1.38412e-06
1.37755e-06
1.35732e-06
1.38619e-06
1.37999e-06
1.37289e-06
1.41534e-06
1.37073e-06
1.39304e-06
1.39304e-06
1.35019e-06
1.35797e-06
1.34894e-06
1.35578e-06
1.33398e-06
1.37073e-06
1.33432e-06
)
;

boundaryField
{
    inlet
    {
        type            calculated;
        value           uniform -1.225e-06;
    }
    outlet
    {
        type            calculated;
        value           uniform 1.39884e-06;
    }
    yzfaces
    {
        type            empty;
    }
}


// ************************************************************************* //
