/*--------------------------------*- C++ -*----------------------------------*\
| =========                 |                                                 |
| \\      /  F ield         | foam-extend: Open Source CFD                    |
|  \\    /   O peration     | Version:     5.0                                |
|   \\  /    A nd           | Web:         http://www.foam-extend.org         |
|    \\/     M anipulation  |                                                 |
\*---------------------------------------------------------------------------*/
FoamFile
{
    version     2.0;
    format      ascii;
    class       volScalarField;
    location    "9";
    object      S.gas;
}
// * * * * * * * * * * * * * * * * * * * * * * * * * * * * * * * * * * * * * //

dimensions      [0 0 0 0 0 0 0];

internalField   nonuniform List<scalar> 
100
(
0.000417834
0.000675992
0.000917896
0.00114861
0.00137096
0.00159178
0.00181506
0.00204104
0.002262
0.00248067
0.00270264
0.00291741
0.00313902
0.00335154
0.00356661
0.00377915
0.00400203
0.00422525
0.00445167
0.00468202
0.00491304
0.00513691
0.00535185
0.00556953
0.00579114
0.00601863
0.00624868
0.00648274
0.00672947
0.00698071
0.00723608
0.0074959
0.00775969
0.00803351
0.0083218
0.00862777
0.00896243
0.00932135
0.00972074
0.0101945
0.0107811
0.0115398
0.0126071
0.0142266
0.0170882
0.0237812
0.0497099
0.302185
0.913292
0.94959
0.949944
0.949596
0.949969
0.95009
0.94997
0.950098
0.949861
0.950215
0.949932
0.949815
0.950073
0.950192
0.949708
0.950093
0.94993
0.949833
0.950212
0.950326
0.949838
0.950094
0.949868
0.94971
0.949998
0.94986
0.950098
0.949971
0.950225
0.949736
0.949972
0.950415
0.949854
0.949848
0.949738
0.949864
0.950206
0.94983
0.950071
0.950188
0.949721
0.950218
0.94983
0.950082
0.950448
0.9503
0.950101
0.950114
0.950093
0.949815
0.950057
0.948791
)
;

boundaryField
{
    inlet
    {
        type            calculated;
        value           uniform 0;
    }
    outlet
    {
        type            calculated;
        value           uniform 0.948791;
    }
    yzfaces
    {
        type            empty;
    }
}


// ************************************************************************* //
