/*--------------------------------*- C++ -*----------------------------------*\
| =========                 |                                                 |
| \\      /  F ield         | foam-extend: Open Source CFD                    |
|  \\    /   O peration     | Version:     5.0                                |
|   \\  /    A nd           | Web:         http://www.foam-extend.org         |
|    \\/     M anipulation  |                                                 |
\*---------------------------------------------------------------------------*/
FoamFile
{
    version     2.0;
    format      ascii;
    class       volVectorField;
    location    "9";
    object      U.gas;
}
// * * * * * * * * * * * * * * * * * * * * * * * * * * * * * * * * * * * * * //

dimensions      [0 1 -1 0 0 0 0];

internalField   nonuniform List<vector> 
100
(
(5.94234e-05 0 0)
(0.000132854 0 0)
(0.000201529 0 0)
(0.000267964 0 0)
(0.000332283 0 0)
(0.000395067 0 0)
(0.000457918 0 0)
(0.000521551 0 0)
(0.000585805 0 0)
(0.000648779 0 0)
(0.000711611 0 0)
(0.000774868 0 0)
(0.000836645 0 0)
(0.000900014 0 0)
(0.000961433 0 0)
(0.00102366 0 0)
(0.0010851 0 0)
(0.00114969 0 0)
(0.0012138 0 0)
(0.00127853 0 0)
(0.00134511 0 0)
(0.00141199 0 0)
(0.00147629 0 0)
(0.00153892 0 0)
(0.00160296 0 0)
(0.00166644 0 0)
(0.00173211 0 0)
(0.00179902 0 0)
(0.0018655 0 0)
(0.00193587 0 0)
(0.00200922 0 0)
(0.00208368 0 0)
(0.00215859 0 0)
(0.00223584 0 0)
(0.00231531 0 0)
(0.00239957 0 0)
(0.00248992 0 0)
(0.00258784 0 0)
(0.00269205 0 0)
(0.00280818 0 0)
(0.00294829 0 0)
(0.0031268 0 0)
(0.00335542 0 0)
(0.00367627 0 0)
(0.00419023 0 0)
(0.00521471 0 0)
(0.00842401 0 0)
(0.00870449 0 0)
(0.00521072 0 0)
(0.0053148 0 0)
(0.00542173 0 0)
(0.00549146 0 0)
(0.00555333 0 0)
(0.00552009 0 0)
(0.00551896 0 0)
(0.00551882 0 0)
(0.00553696 0 0)
(0.00550238 0 0)
(0.00547638 0 0)
(0.0055429 0 0)
(0.00558672 0 0)
(0.00560137 0 0)
(0.0056356 0 0)
(0.00564872 0 0)
(0.00565106 0 0)
(0.00569905 0 0)
(0.0056974 0 0)
(0.00563534 0 0)
(0.0056688 0 0)
(0.00569793 0 0)
(0.00566539 0 0)
(0.0057431 0 0)
(0.00577291 0 0)
(0.00575912 0 0)
(0.00575965 0 0)
(0.00572904 0 0)
(0.00569734 0 0)
(0.00574626 0 0)
(0.00579092 0 0)
(0.00571564 0 0)
(0.00573372 0 0)
(0.00582509 0 0)
(0.00590393 0 0)
(0.00593325 0 0)
(0.00587357 0 0)
(0.00589445 0 0)
(0.00594166 0 0)
(0.00591236 0 0)
(0.00599121 0 0)
(0.00598346 0 0)
(0.00593798 0 0)
(0.00598432 0 0)
(0.00589002 0 0)
(0.00581563 0 0)
(0.00581417 0 0)
(0.00580937 0 0)
(0.00577736 0 0)
(0.00581117 0 0)
(0.00581041 0 0)
(0.00587864 0 0)
)
;

boundaryField
{
    inlet
    {
        type            fixedValue;
        value           uniform (0 0 0);
    }
    outlet
    {
        type            zeroGradient;
    }
    yzfaces
    {
        type            empty;
    }
}


// ************************************************************************* //
