/*--------------------------------*- C++ -*----------------------------------*\
| =========                 |                                                 |
| \\      /  F ield         | foam-extend: Open Source CFD                    |
|  \\    /   O peration     | Version:     5.0                                |
|   \\  /    A nd           | Web:         http://www.foam-extend.org         |
|    \\/     M anipulation  |                                                 |
\*---------------------------------------------------------------------------*/
FoamFile
{
    version     2.0;
    format      ascii;
    class       volVectorField;
    location    "9";
    object      U.water;
}
// * * * * * * * * * * * * * * * * * * * * * * * * * * * * * * * * * * * * * //

dimensions      [0 1 -1 0 0 0 0];

internalField   nonuniform List<vector> 
100
(
(0.00500211 0 0)
(0.00500356 0 0)
(0.00500468 0 0)
(0.00500529 0 0)
(0.00500667 0 0)
(0.00500877 0 0)
(0.00501207 0 0)
(0.00501444 0 0)
(0.00501528 0 0)
(0.00501537 0 0)
(0.00501554 0 0)
(0.00501708 0 0)
(0.0050184 0 0)
(0.00501834 0 0)
(0.0050202 0 0)
(0.00502337 0 0)
(0.00502536 0 0)
(0.00502762 0 0)
(0.00502804 0 0)
(0.00502728 0 0)
(0.00502677 0 0)
(0.00502637 0 0)
(0.00502615 0 0)
(0.00502743 0 0)
(0.00503017 0 0)
(0.00503059 0 0)
(0.0050304 0 0)
(0.00503147 0 0)
(0.00502973 0 0)
(0.00502733 0 0)
(0.00502656 0 0)
(0.0050267 0 0)
(0.00502705 0 0)
(0.00502755 0 0)
(0.00502782 0 0)
(0.00502934 0 0)
(0.00503056 0 0)
(0.00503079 0 0)
(0.00503231 0 0)
(0.00503211 0 0)
(0.0050316 0 0)
(0.00503512 0 0)
(0.00503664 0 0)
(0.00503282 0 0)
(0.00502738 0 0)
(0.00500669 0 0)
(0.00483177 0 0)
(0.00341556 0 0)
(0.00248576 0 0)
(1.03391e-05 0 0)
(5.02509e-06 0 0)
(5.10025e-06 0 0)
(5.17535e-06 0 0)
(5.13215e-06 0 0)
(5.10127e-06 0 0)
(5.09575e-06 0 0)
(5.10873e-06 0 0)
(5.10774e-06 0 0)
(5.07887e-06 0 0)
(5.15956e-06 0 0)
(5.18619e-06 0 0)
(5.17981e-06 0 0)
(5.18533e-06 0 0)
(5.24393e-06 0 0)
(5.22691e-06 0 0)
(5.27229e-06 0 0)
(5.31245e-06 0 0)
(5.24994e-06 0 0)
(5.21728e-06 0 0)
(5.28114e-06 0 0)
(5.23887e-06 0 0)
(5.29625e-06 0 0)
(5.32682e-06 0 0)
(5.29363e-06 0 0)
(5.31891e-06 0 0)
(5.28683e-06 0 0)
(5.31392e-06 0 0)
(5.29907e-06 0 0)
(5.36113e-06 0 0)
(5.3718e-06 0 0)
(5.29304e-06 0 0)
(5.36631e-06 0 0)
(5.40999e-06 0 0)
(5.44208e-06 0 0)
(5.49828e-06 0 0)
(5.47555e-06 0 0)
(5.55765e-06 0 0)
(5.57084e-06 0 0)
(5.55586e-06 0 0)
(5.55536e-06 0 0)
(5.45701e-06 0 0)
(5.5403e-06 0 0)
(5.48764e-06 0 0)
(5.41527e-06 0 0)
(5.39362e-06 0 0)
(5.35773e-06 0 0)
(5.3369e-06 0 0)
(5.36288e-06 0 0)
(5.38894e-06 0 0)
(5.31e-06 0 0)
)
;

boundaryField
{
    inlet
    {
        type            fixedValue;
        value           uniform (0.005 0 0);
    }
    outlet
    {
        type            zeroGradient;
    }
    yzfaces
    {
        type            empty;
    }
}


// ************************************************************************* //
