/*--------------------------------*- C++ -*----------------------------------*\
| =========                 |                                                 |
| \\      /  F ield         | foam-extend: Open Source CFD                    |
|  \\    /   O peration     | Version:     5.0                                |
|   \\  /    A nd           | Web:         http://www.foam-extend.org         |
|    \\/     M anipulation  |                                                 |
\*---------------------------------------------------------------------------*/
FoamFile
{
    version     2.0;
    format      ascii;
    class       volScalarField;
    location    "10";
    object      alpha.gas;
}
// * * * * * * * * * * * * * * * * * * * * * * * * * * * * * * * * * * * * * //

dimensions      [0 0 0 0 0 0 0];

internalField   nonuniform List<scalar> 
100
(
0.0930616
0.0919116
0.0907178
0.0895025
0.0884148
0.0873107
0.0863346
0.0852382
0.0841887
0.0831648
0.082195
0.0812047
0.0802237
0.0793068
0.0784193
0.0775397
0.0766144
0.0757679
0.0749529
0.0740507
0.0732722
0.0724296
0.0716996
0.0709776
0.0702979
0.0695507
0.0688579
0.0681859
0.0675333
0.0668752
0.0662759
0.0656257
0.0650364
0.064452
0.0638481
0.0632743
0.0627402
0.0621675
0.0616395
0.0610729
0.0605579
0.0600203
0.0595703
0.0590692
0.0585503
0.0580791
0.0576286
0.0571876
0.0567807
0.0563871
0.0559678
0.0555749
0.0551872
0.0548032
0.0544073
0.0540646
0.0536663
0.0533296
0.052937
0.0526267
0.0522516
0.0519335
0.0516124
0.0512739
0.0509179
0.050589
0.0503259
0.050043
0.0497402
0.049428
0.0491439
0.0488288
0.04855
0.0482996
0.047997
0.0477615
0.0474707
0.047193
0.0469199
0.0466708
0.0463914
0.0461368
0.0458861
0.0456618
0.0454074
0.0451413
0.0449145
0.0446838
0.0444642
0.0442415
0.0440088
0.0437956
0.0435966
0.0433953
0.0431818
0.0430001
0.0428347
0.0426811
0.04255
0.0424681
)
;

boundaryField
{
    inlet
    {
        type            fixedValue;
        value           uniform 0.2;
    }
    outlet
    {
        type            zeroGradient;
    }
    yzfaces
    {
        type            empty;
    }
}


// ************************************************************************* //
