/*--------------------------------*- C++ -*----------------------------------*\
| =========                 |                                                 |
| \\      /  F ield         | foam-extend: Open Source CFD                    |
|  \\    /   O peration     | Version:     5.0                                |
|   \\  /    A nd           | Web:         http://www.foam-extend.org         |
|    \\/     M anipulation  |                                                 |
\*---------------------------------------------------------------------------*/
FoamFile
{
    version     2.0;
    format      ascii;
    class       surfaceScalarField;
    location    "10";
    object      phi;
}
// * * * * * * * * * * * * * * * * * * * * * * * * * * * * * * * * * * * * * //

dimensions      [0 3 -1 0 0 0 0];

internalField   nonuniform List<scalar> 
99
(
1.22621e-06
1.22696e-06
1.2198e-06
1.22929e-06
1.22954e-06
1.22944e-06
1.22573e-06
1.232e-06
1.22918e-06
1.23197e-06
1.23341e-06
1.23092e-06
1.23443e-06
1.23115e-06
1.23618e-06
1.23251e-06
1.23246e-06
1.23146e-06
1.22883e-06
1.22807e-06
1.23047e-06
1.2297e-06
1.23043e-06
1.23417e-06
1.23264e-06
1.23694e-06
1.23453e-06
1.23829e-06
1.24019e-06
1.24651e-06
1.24151e-06
1.24416e-06
1.24356e-06
1.2411e-06
1.2428e-06
1.24327e-06
1.24512e-06
1.24457e-06
1.24143e-06
1.24147e-06
1.24115e-06
1.24479e-06
1.24529e-06
1.24469e-06
1.2474e-06
1.24798e-06
1.25058e-06
1.25206e-06
1.25313e-06
1.25142e-06
1.25281e-06
1.25212e-06
1.25105e-06
1.25385e-06
1.25482e-06
1.25491e-06
1.2597e-06
1.25913e-06
1.26255e-06
1.2596e-06
1.26175e-06
1.26239e-06
1.26393e-06
1.26414e-06
1.26328e-06
1.26502e-06
1.26461e-06
1.26432e-06
1.26208e-06
1.26287e-06
1.26224e-06
1.26199e-06
1.26552e-06
1.2617e-06
1.26302e-06
1.26141e-06
1.26242e-06
1.25943e-06
1.2606e-06
1.26053e-06
1.26155e-06
1.2615e-06
1.25808e-06
1.25745e-06
1.25763e-06
1.25711e-06
1.25782e-06
1.25802e-06
1.2585e-06
1.25844e-06
1.25924e-06
1.25773e-06
1.2563e-06
1.25715e-06
1.25769e-06
1.25753e-06
1.25688e-06
1.25671e-06
1.25494e-06
)
;

boundaryField
{
    inlet
    {
        type            calculated;
        value           uniform -1.225e-06;
    }
    outlet
    {
        type            calculated;
        value           uniform 1.25713e-06;
    }
    yzfaces
    {
        type            empty;
    }
}


// ************************************************************************* //
