/*--------------------------------*- C++ -*----------------------------------*\
| =========                 |                                                 |
| \\      /  F ield         | foam-extend: Open Source CFD                    |
|  \\    /   O peration     | Version:     5.0                                |
|   \\  /    A nd           | Web:         http://www.foam-extend.org         |
|    \\/     M anipulation  |                                                 |
\*---------------------------------------------------------------------------*/
FoamFile
{
    version     2.0;
    format      ascii;
    class       volScalarField;
    location    "10";
    object      YH2O;
}
// * * * * * * * * * * * * * * * * * * * * * * * * * * * * * * * * * * * * * //

dimensions      [0 0 0 0 0 0 0];

internalField   nonuniform List<scalar> 
100
(
-0.00166351
0.000894851
-0.00334447
0.00476352
-0.00589097
0.010221
-0.0107273
0.00581317
-0.0103714
0.00882125
-0.00696957
0.00529652
-0.00562038
0.00656899
0.000450672
0.00247884
0.00121808
0.00515945
-0.000312388
0.0034627
-0.00307331
0.000618234
-0.00454309
-0.000792346
-0.0054052
0.00283504
-0.00392409
0.00668979
-0.00308424
0.0055591
0.000389258
0.00129624
-0.00107835
0.00365851
-0.000849481
0.00319438
-0.000256911
0.00172411
-0.000531752
0.00138267
-0.00190389
0.00405803
-0.00112628
0.000272082
0.00194449
0.00365011
0.000212115
0.00405762
0.00246681
-0.00204755
0.00157011
0.00042286
0.000405933
-0.000583706
-0.000200588
0.00162745
-0.000606467
-0.000316271
-0.000895203
0.000819806
0.00147246
-0.00104267
0.00206469
-0.00233523
0.00366865
-0.00309288
0.00442417
-0.00358392
0.00391743
-0.00350752
0.00484418
-0.000349977
0.00432506
-0.000799568
0.00357103
-8.6534e-05
0.000578634
-0.000891428
-0.000710408
-0.00163662
-0.00194196
-0.00297022
-0.00177511
-0.0028891
-0.00145286
-0.00153273
-0.00156752
-0.00163467
-0.00446849
-0.00201598
-0.0021159
-0.00323743
-0.0027378
-0.00222216
-0.00278612
-0.00197595
-0.0010353
-0.000796547
-0.00211044
-0.000423399
)
;

boundaryField
{
    inlet
    {
        type            calculated;
        value           uniform 0;
    }
    outlet
    {
        type            calculated;
        value           uniform -0.000423399;
    }
    yzfaces
    {
        type            empty;
    }
}


// ************************************************************************* //
