/*--------------------------------*- C++ -*----------------------------------*\
| =========                 |                                                 |
| \\      /  F ield         | foam-extend: Open Source CFD                    |
|  \\    /   O peration     | Version:     5.0                                |
|   \\  /    A nd           | Web:         http://www.foam-extend.org         |
|    \\/     M anipulation  |                                                 |
\*---------------------------------------------------------------------------*/
FoamFile
{
    version     2.0;
    format      ascii;
    class       volScalarField;
    location    "9";
    object      alpha.gas;
}
// * * * * * * * * * * * * * * * * * * * * * * * * * * * * * * * * * * * * * //

dimensions      [0 0 0 0 0 0 0];

internalField   nonuniform List<scalar> 
100
(
0.144679
0.128771
0.11851
0.111324
0.105485
0.100653
0.0965652
0.0931949
0.0899081
0.087286
0.0851374
0.0832313
0.0814883
0.0797456
0.0782722
0.0769489
0.0755775
0.074378
0.0729463
0.0716976
0.0705534
0.069633
0.0685781
0.0676823
0.0667336
0.065839
0.0647965
0.0639713
0.0632286
0.0626133
0.0617592
0.0610803
0.0604865
0.059957
0.059358
0.0588583
0.0583444
0.0578689
0.0573901
0.0568419
0.0562087
0.0556751
0.0550984
0.0546177
0.054184
0.0537223
0.0533001
0.0528317
0.0524655
0.0521821
0.0518242
0.0514837
0.0510826
0.0507155
0.0503756
0.0501035
0.0497647
0.0494493
0.0490842
0.048838
0.0485233
0.0480977
0.0477743
0.0475421
0.0472146
0.0469262
0.0467141
0.0464348
0.046197
0.0459391
0.0456381
0.04536
0.0451045
0.0447925
0.0444933
0.0442477
0.044008
0.0438225
0.0435767
0.0433254
0.0430913
0.0428765
0.0426969
0.042457
0.0422373
0.0420066
0.0418034
0.0415741
0.0413326
0.0411479
0.0409514
0.0407674
0.0405715
0.0403764
0.0401493
0.0399621
0.039795
0.0395945
0.0393948
0.0391729
)
;

boundaryField
{
    inlet
    {
        type            fixedValue;
        value           uniform 0.2;
    }
    outlet
    {
        type            zeroGradient;
    }
    yzfaces
    {
        type            empty;
    }
}


// ************************************************************************* //
