/*--------------------------------*- C++ -*----------------------------------*\
| =========                 |                                                 |
| \\      /  F ield         | foam-extend: Open Source CFD                    |
|  \\    /   O peration     | Version:     5.0                                |
|   \\  /    A nd           | Web:         http://www.foam-extend.org         |
|    \\/     M anipulation  |                                                 |
\*---------------------------------------------------------------------------*/
FoamFile
{
    version     2.0;
    format      ascii;
    class       volScalarField;
    location    "9";
    object      CO2.gas;
}
// * * * * * * * * * * * * * * * * * * * * * * * * * * * * * * * * * * * * * //

dimensions      [0 0 0 0 0 0 0];

internalField   nonuniform List<scalar> 
100
(
0.144696
0.12894
0.118606
0.111643
0.105669
0.100704
0.0964695
0.0931223
0.0895921
0.0869819
0.0849943
0.0831692
0.0815404
0.0797332
0.078377
0.0771007
0.075741
0.0745695
0.073047
0.0717479
0.0705751
0.0697106
0.068589
0.0677143
0.0667142
0.0658183
0.0646999
0.0639121
0.0631673
0.0625969
0.0616675
0.0610167
0.060453
0.0599458
0.05935
0.0588505
0.0583473
0.0578736
0.0573561
0.0567999
0.0561426
0.0556317
0.0550102
0.0545396
0.0541382
0.0536635
0.0532532
0.052777
0.0524551
0.0521716
0.0518174
0.0514601
0.0510329
0.0506655
0.0503215
0.0500817
0.0497397
0.0494158
0.0490655
0.0488532
0.0485419
0.0480639
0.0477881
0.0475777
0.0472531
0.0469474
0.0467347
0.0464444
0.0461965
0.0459221
0.045613
0.045358
0.0450968
0.0447747
0.0444742
0.0442487
0.0440172
0.0438356
0.0435808
0.043328
0.0430974
0.0428798
0.0427168
0.0424598
0.0422371
0.0419933
0.041783
0.0415403
0.0413098
0.0411351
0.040936
0.0407686
0.0405723
0.0403644
0.040145
0.0399643
0.0398005
0.0395779
0.0393908
0.0391675
)
;

boundaryField
{
    inlet
    {
        type            fixedValue;
        value           uniform 0.2;
    }
    outlet
    {
        type            zeroGradient;
    }
    yzfaces
    {
        type            empty;
    }
}


// ************************************************************************* //
