/*--------------------------------*- C++ -*----------------------------------*\
| =========                 |                                                 |
| \\      /  F ield         | foam-extend: Open Source CFD                    |
|  \\    /   O peration     | Version:     5.0                                |
|   \\  /    A nd           | Web:         http://www.foam-extend.org         |
|    \\/     M anipulation  |                                                 |
\*---------------------------------------------------------------------------*/
FoamFile
{
    version     2.0;
    format      ascii;
    class       volVectorField;
    location    "9";
    object      U.gas;
}
// * * * * * * * * * * * * * * * * * * * * * * * * * * * * * * * * * * * * * //

dimensions      [0 1 -1 0 0 0 0];

internalField   nonuniform List<vector> 
100
(
(0.00692018 0 0)
(0.00774888 0 0)
(0.00838264 0 0)
(0.00890055 0 0)
(0.00935091 0 0)
(0.00983371 0 0)
(0.010321 0 0)
(0.0107001 0 0)
(0.0110488 0 0)
(0.0113278 0 0)
(0.0115663 0 0)
(0.0117974 0 0)
(0.0120558 0 0)
(0.0123049 0 0)
(0.0125121 0 0)
(0.012702 0 0)
(0.0128555 0 0)
(0.0129886 0 0)
(0.0132077 0 0)
(0.0134141 0 0)
(0.0136141 0 0)
(0.0137623 0 0)
(0.0139284 0 0)
(0.0140804 0 0)
(0.0142528 0 0)
(0.0143962 0 0)
(0.014577 0 0)
(0.0147346 0 0)
(0.0148716 0 0)
(0.0149822 0 0)
(0.0151547 0 0)
(0.0152772 0 0)
(0.0153957 0 0)
(0.0155077 0 0)
(0.0156216 0 0)
(0.0157304 0 0)
(0.0158664 0 0)
(0.0159804 0 0)
(0.0160687 0 0)
(0.0161697 0 0)
(0.0162921 0 0)
(0.0163968 0 0)
(0.0165337 0 0)
(0.0166363 0 0)
(0.016724 0 0)
(0.016848 0 0)
(0.0169465 0 0)
(0.0170389 0 0)
(0.017131 0 0)
(0.0171957 0 0)
(0.0172652 0 0)
(0.0173287 0 0)
(0.0174236 0 0)
(0.0175263 0 0)
(0.0176258 0 0)
(0.0176945 0 0)
(0.0177899 0 0)
(0.017874 0 0)
(0.0179698 0 0)
(0.0180304 0 0)
(0.0180963 0 0)
(0.0182034 0 0)
(0.0182886 0 0)
(0.0183338 0 0)
(0.0183963 0 0)
(0.0184688 0 0)
(0.0185267 0 0)
(0.018596 0 0)
(0.0186605 0 0)
(0.0187121 0 0)
(0.0187689 0 0)
(0.0188375 0 0)
(0.0188982 0 0)
(0.0189678 0 0)
(0.0190318 0 0)
(0.0190918 0 0)
(0.0191598 0 0)
(0.0191915 0 0)
(0.0192447 0 0)
(0.0192999 0 0)
(0.0193514 0 0)
(0.0194078 0 0)
(0.0194519 0 0)
(0.0195051 0 0)
(0.0195441 0 0)
(0.0195995 0 0)
(0.0196431 0 0)
(0.0196904 0 0)
(0.0197405 0 0)
(0.0197744 0 0)
(0.0198178 0 0)
(0.0198574 0 0)
(0.019904 0 0)
(0.0199567 0 0)
(0.0200197 0 0)
(0.0200643 0 0)
(0.0201051 0 0)
(0.0201519 0 0)
(0.0202036 0 0)
(0.0202878 0 0)
)
;

boundaryField
{
    inlet
    {
        type            fixedValue;
        value           uniform (0.005 0 0);
    }
    outlet
    {
        type            zeroGradient;
    }
    yzfaces
    {
        type            empty;
    }
}


// ************************************************************************* //
