/*--------------------------------*- C++ -*----------------------------------*\
| =========                 |                                                 |
| \\      /  F ield         | foam-extend: Open Source CFD                    |
|  \\    /   O peration     | Version:     5.0                                |
|   \\  /    A nd           | Web:         http://www.foam-extend.org         |
|    \\/     M anipulation  |                                                 |
\*---------------------------------------------------------------------------*/
FoamFile
{
    version     2.0;
    format      ascii;
    class       volScalarField;
    location    "8";
    object      alpha.gas;
}
// * * * * * * * * * * * * * * * * * * * * * * * * * * * * * * * * * * * * * //

dimensions      [0 0 0 0 0 0 0];

internalField   nonuniform List<scalar> 
100
(
0.0899574
0.0885975
0.0872818
0.0859377
0.0847371
0.0835827
0.0825094
0.0813646
0.0802732
0.0789767
0.0779782
0.0769183
0.0759615
0.0749233
0.0739969
0.0730476
0.0720924
0.0711408
0.0703193
0.0693892
0.0685344
0.06777
0.0670144
0.0662075
0.0655223
0.0648095
0.0641204
0.0634172
0.0627286
0.0620026
0.0614492
0.060852
0.0602245
0.0595908
0.0590033
0.0585233
0.0579001
0.0573799
0.056898
0.0563896
0.0558432
0.0552774
0.0548127
0.054305
0.0539189
0.0534588
0.0529765
0.0525469
0.0521448
0.0517375
0.0513129
0.0509445
0.0505083
0.0500968
0.0497534
0.0492981
0.0489491
0.0485802
0.0481944
0.0478395
0.0474983
0.0471653
0.0468679
0.0465411
0.0462474
0.0459364
0.0455893
0.0452779
0.0449753
0.0446844
0.0444415
0.044161
0.0438849
0.0436006
0.0433501
0.0430868
0.0428454
0.0425844
0.0423062
0.0420655
0.0418113
0.0415717
0.041327
0.0410875
0.0408249
0.0405985
0.0403923
0.0401486
0.0399115
0.0397044
0.0394935
0.0392652
0.0390409
0.0388225
0.0386193
0.0384301
0.0382328
0.038066
0.0379335
0.0378291
)
;

boundaryField
{
    inlet
    {
        type            fixedValue;
        value           uniform 0.2;
    }
    outlet
    {
        type            zeroGradient;
    }
    yzfaces
    {
        type            empty;
    }
}


// ************************************************************************* //
