/*--------------------------------*- C++ -*----------------------------------*\
| =========                 |                                                 |
| \\      /  F ield         | foam-extend: Open Source CFD                    |
|  \\    /   O peration     | Version:     5.0                                |
|   \\  /    A nd           | Web:         http://www.foam-extend.org         |
|    \\/     M anipulation  |                                                 |
\*---------------------------------------------------------------------------*/
FoamFile
{
    version     2.0;
    format      ascii;
    class       volScalarField;
    location    "8";
    object      CO2.gas;
}
// * * * * * * * * * * * * * * * * * * * * * * * * * * * * * * * * * * * * * //

dimensions      [0 0 0 0 0 0 0];

internalField   nonuniform List<scalar> 
100
(
0.0449775
0.0443446
0.0436508
0.0429404
0.0423762
0.0417868
0.0412845
0.040691
0.0401788
0.0394954
0.0389935
0.0384354
0.0379766
0.037431
0.0369934
0.0365503
0.0360486
0.0355755
0.0352264
0.0347554
0.0343235
0.033932
0.0335368
0.033122
0.0327781
0.0324174
0.0320592
0.0316859
0.0313536
0.0309961
0.0307551
0.0304422
0.0301355
0.0298006
0.0294943
0.0292756
0.0289545
0.0286947
0.0284692
0.0282197
0.027943
0.0276545
0.0274302
0.0271769
0.0269798
0.0267308
0.0264713
0.0262482
0.0260447
0.0258377
0.0256133
0.0254301
0.0252138
0.0250203
0.0248513
0.0246142
0.0244535
0.0242798
0.0240875
0.0239142
0.023743
0.0235734
0.0234366
0.0232662
0.0231197
0.0229652
0.0227914
0.0226384
0.0224872
0.0223441
0.0222237
0.0220824
0.0219388
0.0217985
0.0216776
0.021548
0.0214293
0.0212919
0.021148
0.0210316
0.020908
0.02079
0.0206641
0.0205444
0.0204163
0.0203058
0.0202131
0.0200863
0.0199662
0.0198691
0.0197698
0.0196468
0.0195317
0.0194162
0.0193076
0.0192133
0.0191112
0.0190287
0.0189645
0.0189014
)
;

boundaryField
{
    inlet
    {
        type            fixedValue;
        value           uniform 0.1;
    }
    outlet
    {
        type            zeroGradient;
    }
    yzfaces
    {
        type            empty;
    }
}


// ************************************************************************* //
