/*--------------------------------*- C++ -*----------------------------------*\
| =========                 |                                                 |
| \\      /  F ield         | foam-extend: Open Source CFD                    |
|  \\    /   O peration     | Version:     5.0                                |
|   \\  /    A nd           | Web:         http://www.foam-extend.org         |
|    \\/     M anipulation  |                                                 |
\*---------------------------------------------------------------------------*/
FoamFile
{
    version     2.0;
    format      ascii;
    class       volScalarField;
    location    "8";
    object      H2O.gas;
}
// * * * * * * * * * * * * * * * * * * * * * * * * * * * * * * * * * * * * * //

dimensions      [0 0 0 0 0 0 0];

internalField   nonuniform List<scalar> 
100
(
0.0449909
0.0442744
0.0436326
0.0429515
0.0423491
0.0417649
0.0412482
0.0406842
0.0401164
0.0394519
0.0389707
0.0384291
0.0379711
0.0374495
0.0369861
0.0364978
0.0360544
0.0355371
0.0351161
0.034636
0.0342002
0.0338389
0.033489
0.0330678
0.0327422
0.0323901
0.0320604
0.0317291
0.0313776
0.030988
0.0307115
0.0304265
0.0301052
0.0297973
0.0295031
0.029264
0.0289329
0.028681
0.0284356
0.0281709
0.0278932
0.0276021
0.0273808
0.0271276
0.0269531
0.0267314
0.0264912
0.0262938
0.0261045
0.0259028
0.0256913
0.0255135
0.0252881
0.0250703
0.0249104
0.0246728
0.0244964
0.0243
0.0241053
0.0239224
0.023753
0.0235833
0.023426
0.0232649
0.0231234
0.0229689
0.0227917
0.0226335
0.022487
0.0223346
0.02222
0.0220764
0.0219448
0.0217993
0.0216751
0.0215392
0.0214185
0.0212907
0.0211511
0.0210363
0.0209053
0.020786
0.0206635
0.0205431
0.020404
0.020289
0.0201794
0.0200546
0.0199362
0.0198331
0.0197282
0.0196207
0.0195111
0.0194046
0.019312
0.0192183
0.0191189
0.0190346
0.01897
0.0189198
)
;

boundaryField
{
    inlet
    {
        type            fixedValue;
        value           uniform 0.1;
    }
    outlet
    {
        type            zeroGradient;
    }
    yzfaces
    {
        type            empty;
    }
}


// ************************************************************************* //
