/*--------------------------------*- C++ -*----------------------------------*\
| =========                 |                                                 |
| \\      /  F ield         | foam-extend: Open Source CFD                    |
|  \\    /   O peration     | Version:     5.0                                |
|   \\  /    A nd           | Web:         http://www.foam-extend.org         |
|    \\/     M anipulation  |                                                 |
\*---------------------------------------------------------------------------*/
FoamFile
{
    version     2.0;
    format      ascii;
    class       surfaceScalarField;
    location    "8";
    object      phi;
}
// * * * * * * * * * * * * * * * * * * * * * * * * * * * * * * * * * * * * * //

dimensions      [0 3 -1 0 0 0 0];

internalField   nonuniform List<scalar> 
99
(
1.22561e-06
1.22059e-06
1.22151e-06
1.22833e-06
1.22225e-06
1.23039e-06
1.22547e-06
1.22426e-06
1.2235e-06
1.22908e-06
1.22601e-06
1.2365e-06
1.23456e-06
1.24566e-06
1.24416e-06
1.24945e-06
1.24318e-06
1.25297e-06
1.24492e-06
1.24487e-06
1.24504e-06
1.24866e-06
1.24426e-06
1.24903e-06
1.24728e-06
1.24896e-06
1.24641e-06
1.24649e-06
1.24462e-06
1.2502e-06
1.24603e-06
1.24455e-06
1.24548e-06
1.24361e-06
1.24629e-06
1.24275e-06
1.24809e-06
1.24805e-06
1.24451e-06
1.24318e-06
1.24286e-06
1.24684e-06
1.24685e-06
1.24622e-06
1.24431e-06
1.24264e-06
1.24724e-06
1.24968e-06
1.24866e-06
1.24804e-06
1.25076e-06
1.24885e-06
1.2505e-06
1.25256e-06
1.2487e-06
1.25328e-06
1.25135e-06
1.25076e-06
1.25254e-06
1.25255e-06
1.25196e-06
1.25549e-06
1.25637e-06
1.25865e-06
1.25936e-06
1.25957e-06
1.26158e-06
1.26308e-06
1.26102e-06
1.26309e-06
1.26258e-06
1.26299e-06
1.26188e-06
1.26354e-06
1.26107e-06
1.26175e-06
1.26075e-06
1.26103e-06
1.26399e-06
1.26217e-06
1.26117e-06
1.25905e-06
1.25961e-06
1.25927e-06
1.25961e-06
1.26086e-06
1.25933e-06
1.26209e-06
1.26431e-06
1.2647e-06
1.26291e-06
1.26292e-06
1.263e-06
1.26336e-06
1.26359e-06
1.26238e-06
1.26316e-06
1.26495e-06
1.26396e-06
)
;

boundaryField
{
    inlet
    {
        type            calculated;
        value           uniform -1.225e-06;
    }
    outlet
    {
        type            calculated;
        value           uniform 1.26823e-06;
    }
    yzfaces
    {
        type            empty;
    }
}


// ************************************************************************* //
