/*--------------------------------*- C++ -*----------------------------------*\
| =========                 |                                                 |
| \\      /  F ield         | foam-extend: Open Source CFD                    |
|  \\    /   O peration     | Version:     5.0                                |
|   \\  /    A nd           | Web:         http://www.foam-extend.org         |
|    \\/     M anipulation  |                                                 |
\*---------------------------------------------------------------------------*/
FoamFile
{
    version     2.0;
    format      ascii;
    class       volVectorField;
    location    "8";
    object      U.gas;
}
// * * * * * * * * * * * * * * * * * * * * * * * * * * * * * * * * * * * * * //

dimensions      [0 1 -1 0 0 0 0];

internalField   nonuniform List<vector> 
100
(
(0.0111134 0 0)
(0.0112467 0 0)
(0.0113807 0 0)
(0.0115653 0 0)
(0.0116954 0 0)
(0.0118364 0 0)
(0.0119878 0 0)
(0.0121111 0 0)
(0.0122643 0 0)
(0.0124563 0 0)
(0.0125778 0 0)
(0.0127615 0 0)
(0.012941 0 0)
(0.01314 0 0)
(0.013318 0 0)
(0.0134896 0 0)
(0.0136364 0 0)
(0.0137911 0 0)
(0.0139306 0 0)
(0.0140469 0 0)
(0.0141672 0 0)
(0.0143046 0 0)
(0.0144382 0 0)
(0.0145729 0 0)
(0.0146965 0 0)
(0.0148261 0 0)
(0.014945 0 0)
(0.0150617 0 0)
(0.0151833 0 0)
(0.0153232 0 0)
(0.015414 0 0)
(0.0155089 0 0)
(0.0156345 0 0)
(0.0157481 0 0)
(0.0158445 0 0)
(0.0159386 0 0)
(0.016088 0 0)
(0.0162006 0 0)
(0.0162744 0 0)
(0.0163612 0 0)
(0.0164762 0 0)
(0.0166059 0 0)
(0.0167173 0 0)
(0.0168106 0 0)
(0.0168632 0 0)
(0.0169604 0 0)
(0.017081 0 0)
(0.0172058 0 0)
(0.0173 0 0)
(0.0173851 0 0)
(0.0174876 0 0)
(0.0175734 0 0)
(0.0176828 0 0)
(0.0177847 0 0)
(0.0178549 0 0)
(0.0179723 0 0)
(0.0180479 0 0)
(0.0181234 0 0)
(0.0182192 0 0)
(0.0183038 0 0)
(0.0183738 0 0)
(0.018464 0 0)
(0.0185617 0 0)
(0.0186628 0 0)
(0.0187485 0 0)
(0.0188408 0 0)
(0.0189426 0 0)
(0.0190301 0 0)
(0.0190933 0 0)
(0.0191496 0 0)
(0.0192125 0 0)
(0.0192884 0 0)
(0.0193483 0 0)
(0.019416 0 0)
(0.0194613 0 0)
(0.0195097 0 0)
(0.0195617 0 0)
(0.0196269 0 0)
(0.0197147 0 0)
(0.0197716 0 0)
(0.0198121 0 0)
(0.0198401 0 0)
(0.0198851 0 0)
(0.0199462 0 0)
(0.0200067 0 0)
(0.020054 0 0)
(0.0201015 0 0)
(0.0201796 0 0)
(0.0202636 0 0)
(0.0203227 0 0)
(0.0203659 0 0)
(0.0204093 0 0)
(0.0204587 0 0)
(0.0205057 0 0)
(0.0205479 0 0)
(0.0205787 0 0)
(0.0206133 0 0)
(0.0206522 0 0)
(0.0206689 0 0)
(0.0206843 0 0)
)
;

boundaryField
{
    inlet
    {
        type            fixedValue;
        value           uniform (0.005 0 0);
    }
    outlet
    {
        type            zeroGradient;
    }
    yzfaces
    {
        type            empty;
    }
}


// ************************************************************************* //
