/*--------------------------------*- C++ -*----------------------------------*\
| =========                 |                                                 |
| \\      /  F ield         | foam-extend: Open Source CFD                    |
|  \\    /   O peration     | Version:     5.0                                |
|   \\  /    A nd           | Web:         http://www.foam-extend.org         |
|    \\/     M anipulation  |                                                 |
\*---------------------------------------------------------------------------*/
FoamFile
{
    version     2.0;
    format      ascii;
    class       volVectorField;
    location    "8";
    object      U.water;
}
// * * * * * * * * * * * * * * * * * * * * * * * * * * * * * * * * * * * * * //

dimensions      [0 1 -1 0 0 0 0];

internalField   nonuniform List<vector> 
100
(
(4.67933e-06 0 0)
(1.81596e-05 0 0)
(3.05597e-05 0 0)
(5.29331e-05 0 0)
(7.98409e-05 0 0)
(0.000101071 0 0)
(0.000113115 0 0)
(0.000122033 0 0)
(0.000121845 0 0)
(0.000142915 0 0)
(0.000174398 0 0)
(0.000191027 0 0)
(0.000206246 0 0)
(0.000222646 0 0)
(0.000244123 0 0)
(0.000255355 0 0)
(0.000268341 0 0)
(0.000292808 0 0)
(0.000308162 0 0)
(0.000318026 0 0)
(0.000344974 0 0)
(0.000366175 0 0)
(0.000375651 0 0)
(0.000394941 0 0)
(0.000416092 0 0)
(0.000429036 0 0)
(0.000443306 0 0)
(0.000456399 0 0)
(0.000468774 0 0)
(0.0004943 0 0)
(0.000517402 0 0)
(0.000523264 0 0)
(0.000534857 0 0)
(0.000552056 0 0)
(0.000577381 0 0)
(0.000587774 0 0)
(0.000599378 0 0)
(0.000625757 0 0)
(0.000638631 0 0)
(0.00064606 0 0)
(0.00065644 0 0)
(0.000679041 0 0)
(0.000699195 0 0)
(0.000718499 0 0)
(0.000734478 0 0)
(0.000739711 0 0)
(0.000757596 0 0)
(0.000780198 0 0)
(0.000795542 0 0)
(0.000806656 0 0)
(0.0008244 0 0)
(0.000838472 0 0)
(0.000849652 0 0)
(0.000871886 0 0)
(0.000882438 0 0)
(0.000897246 0 0)
(0.000919356 0 0)
(0.000930057 0 0)
(0.000946542 0 0)
(0.000965047 0 0)
(0.000980487 0 0)
(0.000998387 0 0)
(0.00101416 0 0)
(0.00102926 0 0)
(0.00104513 0 0)
(0.00105575 0 0)
(0.00107156 0 0)
(0.00109119 0 0)
(0.00110641 0 0)
(0.00112391 0 0)
(0.00113819 0 0)
(0.00114894 0 0)
(0.00116234 0 0)
(0.00117799 0 0)
(0.00119249 0 0)
(0.00120519 0 0)
(0.00121828 0 0)
(0.00122922 0 0)
(0.00124651 0 0)
(0.00126246 0 0)
(0.00127421 0 0)
(0.00128687 0 0)
(0.00129976 0 0)
(0.00131252 0 0)
(0.00132776 0 0)
(0.0013463 0 0)
(0.00135773 0 0)
(0.00136983 0 0)
(0.00138944 0 0)
(0.00140583 0 0)
(0.0014165 0 0)
(0.00142831 0 0)
(0.001443 0 0)
(0.00145858 0 0)
(0.00147393 0 0)
(0.00148647 0 0)
(0.0015005 0 0)
(0.00151751 0 0)
(0.00153126 0 0)
(0.00154824 0 0)
)
;

boundaryField
{
    inlet
    {
        type            fixedValue;
        value           uniform (0 0 0);
    }
    outlet
    {
        type            zeroGradient;
    }
    yzfaces
    {
        type            empty;
    }
}


// ************************************************************************* //
