/*--------------------------------*- C++ -*----------------------------------*\
| =========                 |                                                 |
| \\      /  F ield         | foam-extend: Open Source CFD                    |
|  \\    /   O peration     | Version:     5.0                                |
|   \\  /    A nd           | Web:         http://www.foam-extend.org         |
|    \\/     M anipulation  |                                                 |
\*---------------------------------------------------------------------------*/
FoamFile
{
    version     2.0;
    format      ascii;
    class       volVectorField;
    location    "4";
    object      U.gas;
}
// * * * * * * * * * * * * * * * * * * * * * * * * * * * * * * * * * * * * * //

dimensions      [0 1 -1 0 0 0 0];

internalField   nonuniform List<vector> 
100
(
(0.0122314 0 0)
(0.0124502 0 0)
(0.0126445 0 0)
(0.0129017 0 0)
(0.0131723 0 0)
(0.0134136 0 0)
(0.0136334 0 0)
(0.0138453 0 0)
(0.0140626 0 0)
(0.0143186 0 0)
(0.0145729 0 0)
(0.014777 0 0)
(0.0149658 0 0)
(0.0151515 0 0)
(0.0153886 0 0)
(0.015618 0 0)
(0.0158195 0 0)
(0.0160037 0 0)
(0.0161685 0 0)
(0.016356 0 0)
(0.0165506 0 0)
(0.0167081 0 0)
(0.0169073 0 0)
(0.0170953 0 0)
(0.0172577 0 0)
(0.0174232 0 0)
(0.0175452 0 0)
(0.0177018 0 0)
(0.0178782 0 0)
(0.0180533 0 0)
(0.0181721 0 0)
(0.0183143 0 0)
(0.0184438 0 0)
(0.018552 0 0)
(0.0186932 0 0)
(0.0188188 0 0)
(0.0189627 0 0)
(0.0190692 0 0)
(0.0191704 0 0)
(0.0193 0 0)
(0.0193971 0 0)
(0.0195086 0 0)
(0.0196012 0 0)
(0.0197086 0 0)
(0.0198227 0 0)
(0.0199202 0 0)
(0.0200118 0 0)
(0.0201036 0 0)
(0.0201832 0 0)
(0.0202686 0 0)
(0.0203558 0 0)
(0.0204423 0 0)
(0.0205334 0 0)
(0.0206139 0 0)
(0.020678 0 0)
(0.0207571 0 0)
(0.0208388 0 0)
(0.0209254 0 0)
(0.0209933 0 0)
(0.0210666 0 0)
(0.0211171 0 0)
(0.0211901 0 0)
(0.0212897 0 0)
(0.021343 0 0)
(0.0213827 0 0)
(0.0214359 0 0)
(0.021489 0 0)
(0.0215166 0 0)
(0.0215759 0 0)
(0.0216165 0 0)
(0.0216774 0 0)
(0.0217373 0 0)
(0.0217723 0 0)
(0.0217856 0 0)
(0.0217937 0 0)
(0.0218266 0 0)
(0.021846 0 0)
(0.021868 0 0)
(0.0218936 0 0)
(0.0219101 0 0)
(0.0219307 0 0)
(0.0219433 0 0)
(0.021947 0 0)
(0.0219601 0 0)
(0.0219484 0 0)
(0.0219611 0 0)
(0.0219726 0 0)
(0.0219963 0 0)
(0.0220145 0 0)
(0.0220034 0 0)
(0.0219859 0 0)
(0.0219867 0 0)
(0.0219787 0 0)
(0.0219473 0 0)
(0.021936 0 0)
(0.021906 0 0)
(0.0218705 0 0)
(0.0218328 0 0)
(0.0217792 0 0)
(0.0216572 0 0)
)
;

boundaryField
{
    inlet
    {
        type            fixedValue;
        value           uniform (0.005 0 0);
    }
    outlet
    {
        type            zeroGradient;
    }
    yzfaces
    {
        type            empty;
    }
}


// ************************************************************************* //
