/*--------------------------------*- C++ -*----------------------------------*\
| =========                 |                                                 |
| \\      /  F ield         | foam-extend: Open Source CFD                    |
|  \\    /   O peration     | Version:     5.0                                |
|   \\  /    A nd           | Web:         http://www.foam-extend.org         |
|    \\/     M anipulation  |                                                 |
\*---------------------------------------------------------------------------*/
FoamFile
{
    version     2.0;
    format      ascii;
    class       regIOobject;
    location    "7/uniform";
    object      profilingInfo;
}
// * * * * * * * * * * * * * * * * * * * * * * * * * * * * * * * * * * * * * //

profilingInfo
(

    {
        id              6;
        parentId        5;
        description     "Foam::Time::writeObject - outputTime";
        calls           7;
        totalTime       0.399133;
        childTime       0;
        onStack         1;
    }

    {
        id              5;
        parentId        1;
        description     "Foam::Time::writeObject";
        calls           83;
        totalTime       0.399416;
        childTime       0.399133;
        onStack         1;
    }

    {
        id              1;
        description     "application::main";
        calls           1;
        totalTime       2.92338;
        childTime       0.405344;
        onStack         1;
    }

    {
        id              2;
        parentId        1;
        description     "functionObjectList::read";
        calls           1;
        totalTime       3.1e-05;
        childTime       0;
        onStack         0;
    }

    {
        id              3;
        parentId        1;
        description     "fvMatrix::solve_XH2O";
        calls           83;
        totalTime       0.005897;
        childTime       0.002463;
        onStack         0;
    }

    {
        id              4;
        parentId        3;
        description     "lduMatrix::solver_XH2O";
        calls           83;
        totalTime       0.002463;
        childTime       0;
        onStack         0;
    }
);


// ************************************************************************* //
