/*--------------------------------*- C++ -*----------------------------------*\
| =========                 |                                                 |
| \\      /  F ield         | foam-extend: Open Source CFD                    |
|  \\    /   O peration     | Version:     5.0                                |
|   \\  /    A nd           | Web:         http://www.foam-extend.org         |
|    \\/     M anipulation  |                                                 |
\*---------------------------------------------------------------------------*/
FoamFile
{
    version     2.0;
    format      ascii;
    class       volVectorField;
    location    "8";
    object      U.gas;
}
// * * * * * * * * * * * * * * * * * * * * * * * * * * * * * * * * * * * * * //

dimensions      [0 1 -1 0 0 0 0];

internalField   nonuniform List<vector> 
100
(
(0.0110881 0 0)
(0.0112289 0 0)
(0.0113769 0 0)
(0.0115592 0 0)
(0.011715 0 0)
(0.0118786 0 0)
(0.0120221 0 0)
(0.0121879 0 0)
(0.0123731 0 0)
(0.0125099 0 0)
(0.0126244 0 0)
(0.0127832 0 0)
(0.0129447 0 0)
(0.0130812 0 0)
(0.0131862 0 0)
(0.013313 0 0)
(0.013455 0 0)
(0.0136328 0 0)
(0.0137594 0 0)
(0.0139326 0 0)
(0.0141099 0 0)
(0.0142836 0 0)
(0.014418 0 0)
(0.0145389 0 0)
(0.0146644 0 0)
(0.014787 0 0)
(0.0149355 0 0)
(0.0150677 0 0)
(0.0151778 0 0)
(0.0153033 0 0)
(0.0154288 0 0)
(0.0155553 0 0)
(0.0156819 0 0)
(0.0157859 0 0)
(0.0159448 0 0)
(0.0160788 0 0)
(0.0161591 0 0)
(0.0163031 0 0)
(0.0164235 0 0)
(0.0165174 0 0)
(0.0166172 0 0)
(0.0166645 0 0)
(0.0167718 0 0)
(0.0168876 0 0)
(0.0169705 0 0)
(0.0170406 0 0)
(0.0171717 0 0)
(0.0172745 0 0)
(0.017348 0 0)
(0.0174469 0 0)
(0.0175158 0 0)
(0.0175725 0 0)
(0.0176114 0 0)
(0.0177331 0 0)
(0.0178435 0 0)
(0.0179138 0 0)
(0.0179985 0 0)
(0.0180776 0 0)
(0.0181585 0 0)
(0.0182518 0 0)
(0.0183371 0 0)
(0.0183932 0 0)
(0.0184715 0 0)
(0.0185479 0 0)
(0.0186032 0 0)
(0.0186999 0 0)
(0.0187942 0 0)
(0.0188687 0 0)
(0.0189344 0 0)
(0.0189783 0 0)
(0.0190225 0 0)
(0.0190833 0 0)
(0.0191428 0 0)
(0.0192142 0 0)
(0.0192656 0 0)
(0.0193119 0 0)
(0.0193784 0 0)
(0.0194487 0 0)
(0.0195231 0 0)
(0.0195722 0 0)
(0.0196308 0 0)
(0.0196952 0 0)
(0.0197584 0 0)
(0.0198029 0 0)
(0.019857 0 0)
(0.019913 0 0)
(0.0199577 0 0)
(0.0200051 0 0)
(0.0200649 0 0)
(0.0201082 0 0)
(0.020147 0 0)
(0.0201751 0 0)
(0.0202022 0 0)
(0.0202232 0 0)
(0.0202622 0 0)
(0.0203121 0 0)
(0.0203327 0 0)
(0.0203535 0 0)
(0.0203611 0 0)
(0.0203016 0 0)
)
;

boundaryField
{
    inlet
    {
        type            fixedValue;
        value           uniform (0.005 0 0);
    }
    outlet
    {
        type            zeroGradient;
    }
    yzfaces
    {
        type            empty;
    }
}


// ************************************************************************* //
