/*--------------------------------*- C++ -*----------------------------------*\
| =========                 |                                                 |
| \\      /  F ield         | foam-extend: Open Source CFD                    |
|  \\    /   O peration     | Version:     5.0                                |
|   \\  /    A nd           | Web:         http://www.foam-extend.org         |
|    \\/     M anipulation  |                                                 |
\*---------------------------------------------------------------------------*/
FoamFile
{
    version     2.0;
    format      ascii;
    class       volScalarField;
    location    "10000";
    object      alpha.gas;
}
// * * * * * * * * * * * * * * * * * * * * * * * * * * * * * * * * * * * * * //

dimensions      [0 0 0 0 0 0 0];

internalField   nonuniform List<scalar> 
1500
(
6.44105e-07
7.87097e-07
9.8364e-07
1.2981e-06
1.5835e-06
1.85406e-06
2.11727e-06
2.37638e-06
2.63294e-06
2.88778e-06
3.14136e-06
3.39398e-06
3.64581e-06
3.89701e-06
4.14766e-06
4.39783e-06
4.6476e-06
4.897e-06
5.14608e-06
5.39486e-06
5.64338e-06
5.89166e-06
6.13971e-06
6.38757e-06
6.63524e-06
6.88273e-06
7.13006e-06
7.37725e-06
7.6243e-06
7.87121e-06
8.11801e-06
8.36469e-06
8.61126e-06
8.85774e-06
9.10411e-06
9.3504e-06
9.5966e-06
9.84272e-06
1.00888e-05
1.03347e-05
1.05806e-05
1.08265e-05
1.10722e-05
1.1318e-05
1.15636e-05
1.18092e-05
1.20547e-05
1.23002e-05
1.25457e-05
1.27911e-05
1.30364e-05
1.32817e-05
1.3527e-05
1.37722e-05
1.40174e-05
1.42626e-05
1.45077e-05
1.47528e-05
1.49978e-05
1.52428e-05
1.54878e-05
1.57327e-05
1.59777e-05
1.62226e-05
1.64674e-05
1.67123e-05
1.69571e-05
1.72018e-05
1.74466e-05
1.76913e-05
1.79361e-05
1.81807e-05
1.84254e-05
1.86701e-05
1.89147e-05
1.91593e-05
1.94039e-05
1.96484e-05
1.9893e-05
2.01375e-05
2.0382e-05
2.06265e-05
2.0871e-05
2.11154e-05
2.13599e-05
2.16043e-05
2.18487e-05
2.20931e-05
2.23375e-05
2.25819e-05
2.28262e-05
2.30705e-05
2.33149e-05
2.35592e-05
2.38035e-05
2.40478e-05
2.4292e-05
2.45363e-05
2.47805e-05
2.50248e-05
2.5269e-05
2.55132e-05
2.57574e-05
2.60016e-05
2.62458e-05
2.64899e-05
2.67341e-05
2.69783e-05
2.72224e-05
2.74665e-05
2.77106e-05
2.79548e-05
2.81989e-05
2.84429e-05
2.8687e-05
2.89311e-05
2.91752e-05
2.94192e-05
2.96633e-05
2.99073e-05
3.01513e-05
3.03954e-05
3.06394e-05
3.08834e-05
3.11274e-05
3.13714e-05
3.16154e-05
3.18594e-05
3.21033e-05
3.23473e-05
3.25912e-05
3.28352e-05
3.30791e-05
3.33231e-05
3.3567e-05
3.38109e-05
3.40549e-05
3.42988e-05
3.45427e-05
3.47866e-05
3.50305e-05
3.52744e-05
3.55182e-05
3.57621e-05
3.6006e-05
3.62499e-05
3.64937e-05
3.67376e-05
3.69814e-05
3.72253e-05
3.74691e-05
3.77129e-05
3.79568e-05
3.82006e-05
3.84444e-05
3.86882e-05
3.89321e-05
3.91759e-05
3.94197e-05
3.96635e-05
3.99072e-05
4.0151e-05
4.03948e-05
4.06386e-05
4.08824e-05
4.11261e-05
4.13699e-05
4.16137e-05
4.18574e-05
4.21012e-05
4.23449e-05
4.25887e-05
4.28324e-05
4.30762e-05
4.33199e-05
4.35636e-05
4.38074e-05
4.40511e-05
4.42948e-05
4.45385e-05
4.47822e-05
4.50259e-05
4.52696e-05
4.55133e-05
4.5757e-05
4.60007e-05
4.62444e-05
4.64881e-05
4.67318e-05
4.69755e-05
4.72192e-05
4.74628e-05
4.77065e-05
4.79502e-05
4.81939e-05
4.84375e-05
4.86812e-05
4.89248e-05
4.91685e-05
4.94121e-05
4.96558e-05
4.98994e-05
5.01431e-05
5.03867e-05
5.06304e-05
5.0874e-05
5.11176e-05
5.13613e-05
5.16049e-05
5.18485e-05
5.20921e-05
5.23358e-05
5.25794e-05
5.2823e-05
5.30666e-05
5.33102e-05
5.35538e-05
5.37974e-05
5.4041e-05
5.42846e-05
5.45282e-05
5.47718e-05
5.50154e-05
5.5259e-05
5.55026e-05
5.57462e-05
5.59898e-05
5.62334e-05
5.64769e-05
5.67205e-05
5.69641e-05
5.72077e-05
5.74512e-05
5.76948e-05
5.79384e-05
5.81819e-05
5.84255e-05
5.86691e-05
5.89126e-05
5.91562e-05
5.93997e-05
5.96433e-05
5.98911e-05
6.05094e-05
9.40512e-05
0.00166254
0.00425119
0.00679024
0.00927998
0.0117217
0.0141165
0.0164658
0.0187706
0.0210321
0.0232514
0.0254294
0.0275673
0.029666
0.0317265
0.0337497
0.0357365
0.0376877
0.0396042
0.0414869
0.0433365
0.0451538
0.0469396
0.0486945
0.0504193
0.0521147
0.0537814
0.0554199
0.0570309
0.0586151
0.060173
0.0617053
0.0632124
0.0646949
0.0661534
0.0675883
0.0690003
0.0703897
0.071757
0.0731028
0.0744274
0.0757314
0.077015
0.0782789
0.0795233
0.0807486
0.0819554
0.0831438
0.0843144
0.0854674
0.0866032
0.0877221
0.0888246
0.0899108
0.0909812
0.092036
0.0930755
0.0941
0.0951099
0.0961053
0.0970867
0.0980541
0.099008
0.0999485
0.100876
0.10179
0.102692
0.103582
0.104459
0.105325
0.106178
0.107021
0.107851
0.108671
0.10948
0.110278
0.111066
0.111843
0.11261
0.113367
0.114115
0.114852
0.115581
0.1163
0.117009
0.11771
0.118402
0.119085
0.11976
0.120426
0.121084
0.121734
0.122376
0.12301
0.123636
0.124255
0.124866
0.12547
0.126066
0.126655
0.127238
0.127813
0.128382
0.128944
0.129499
0.130048
0.130591
0.131127
0.131657
0.132181
0.132699
0.133211
0.133717
0.134217
0.134712
0.135202
0.135685
0.136164
0.136637
0.137105
0.137567
0.138025
0.138478
0.138925
0.139368
0.139806
0.140239
0.140668
0.141092
0.141512
0.141927
0.142337
0.142744
0.143146
0.143544
0.143937
0.144327
0.144713
0.145094
0.145472
0.145846
0.146216
0.146582
0.146944
0.147303
0.147658
0.14801
0.148358
0.148703
0.149044
0.149382
0.149716
0.150047
0.150375
0.1507
0.151022
0.15134
0.151655
0.151968
0.152277
0.152583
0.152887
0.153187
0.153485
0.15378
0.154072
0.154361
0.154648
0.154932
0.155213
0.155492
0.155768
0.156041
0.156312
0.156581
0.156847
0.157111
0.157372
0.157631
0.157888
0.158142
0.158394
0.158644
0.158891
0.159136
0.159379
0.15962
0.159859
0.160096
0.160331
0.160563
0.160794
0.161023
0.161249
0.161474
0.161697
0.161918
0.162136
0.162354
0.162569
0.162782
0.162994
0.163204
0.163412
0.163618
0.163823
0.164025
0.164227
0.164426
0.164624
0.16482
0.165015
0.165208
0.1654
0.165589
0.165778
0.165965
0.16615
0.166334
0.166516
0.166697
0.166877
0.167055
0.167231
0.167406
0.16758
0.167753
0.167924
0.168094
0.168262
0.168429
0.168595
0.16876
0.168923
0.169085
0.169246
0.169405
0.169564
0.169721
0.169877
0.170031
0.170185
0.170337
0.170489
0.170639
0.170788
0.170936
0.171082
0.171228
0.171373
0.171516
0.171659
0.1718
0.171941
0.17208
0.172218
0.172356
0.172492
0.172627
0.172762
0.172895
0.173028
0.173159
0.17329
0.173419
0.173548
0.173676
0.173803
0.173929
0.174054
0.174178
0.174301
0.174424
0.174546
0.174666
0.174786
0.174906
0.175024
0.175141
0.175258
0.175374
0.175489
0.175603
0.175717
0.17583
0.175942
0.176053
0.176163
0.176273
0.176382
0.17649
0.176598
0.176705
0.176811
0.176916
0.177021
0.177125
0.177229
0.177331
0.177433
0.177535
0.177635
0.177735
0.177835
0.177933
0.178032
0.178129
0.178226
0.178322
0.178418
0.178513
0.178607
0.178701
0.178794
0.178887
0.178979
0.17907
0.179161
0.179251
0.179341
0.17943
0.179519
0.179607
0.179694
0.179781
0.179868
0.179954
0.180039
0.180124
0.180208
0.180292
0.180376
0.180458
0.180541
0.180622
0.180704
0.180785
0.180865
0.180945
0.181024
0.181103
0.181182
0.18126
0.181337
0.181414
0.181491
0.181567
0.181643
0.181718
0.181793
0.181867
0.181941
0.182015
0.182088
0.18216
0.182233
0.182304
0.182376
0.182447
0.182518
0.182588
0.182658
0.182727
0.182796
0.182865
0.182933
0.183001
0.183068
0.183135
0.183202
0.183268
0.183334
0.1834
0.183465
0.18353
0.183595
0.183659
0.183723
0.183786
0.183849
0.183912
0.183975
0.184037
0.184098
0.18416
0.184221
0.184282
0.184342
0.184402
0.184462
0.184521
0.184581
0.184639
0.184698
0.184756
0.184814
0.184872
0.184929
0.184986
0.185043
0.185099
0.185155
0.185211
0.185266
0.185322
0.185377
0.185431
0.185486
0.18554
0.185594
0.185647
0.1857
0.185753
0.185806
0.185859
0.185911
0.185963
0.186014
0.186066
0.186117
0.186168
0.186218
0.186269
0.186319
0.186369
0.186418
0.186468
0.186517
0.186566
0.186615
0.186663
0.186711
0.186759
0.186807
0.186854
0.186902
0.186949
0.186995
0.187042
0.187088
0.187134
0.18718
0.187226
0.187271
0.187317
0.187362
0.187406
0.187451
0.187495
0.187539
0.187583
0.187627
0.187671
0.187714
0.187757
0.1878
0.187843
0.187885
0.187928
0.18797
0.188012
0.188054
0.188095
0.188136
0.188178
0.188219
0.188259
0.1883
0.18834
0.188381
0.188421
0.188461
0.1885
0.18854
0.188579
0.188618
0.188657
0.188696
0.188735
0.188773
0.188812
0.18885
0.188888
0.188926
0.188963
0.189001
0.189038
0.189075
0.189112
0.189149
0.189185
0.189222
0.189258
0.189294
0.18933
0.189366
0.189402
0.189438
0.189473
0.189508
0.189543
0.189578
0.189613
0.189648
0.189682
0.189717
0.189751
0.189785
0.189819
0.189853
0.189886
0.18992
0.189953
0.189986
0.190019
0.190052
0.190085
0.190118
0.19015
0.190183
0.190215
0.190247
0.190279
0.190311
0.190343
0.190375
0.190406
0.190437
0.190469
0.1905
0.190531
0.190562
0.190592
0.190623
0.190654
0.190684
0.190714
0.190744
0.190774
0.190804
0.190834
0.190864
0.190893
0.190923
0.190952
0.190981
0.19101
0.191039
0.191068
0.191097
0.191126
0.191154
0.191182
0.191211
0.191239
0.191267
0.191295
0.191323
0.191351
0.191378
0.191406
0.191433
0.191461
0.191488
0.191515
0.191542
0.191569
0.191596
0.191623
0.191649
0.191676
0.191703
0.191729
0.191755
0.191781
0.191807
0.191833
0.191859
0.191885
0.191911
0.191936
0.191962
0.191987
0.192013
0.192038
0.192063
0.192088
0.192113
0.192138
0.192163
0.192187
0.192212
0.192236
0.192261
0.192285
0.192309
0.192334
0.192358
0.192382
0.192406
0.192429
0.192453
0.192477
0.1925
0.192524
0.192547
0.192571
0.192594
0.192617
0.19264
0.192663
0.192686
0.192709
0.192732
0.192755
0.192777
0.1928
0.192822
0.192845
0.192867
0.192889
0.192912
0.192934
0.192956
0.192978
0.193
0.193021
0.193043
0.193065
0.193086
0.193108
0.19313
0.193151
0.193172
0.193193
0.193215
0.193236
0.193257
0.193278
0.193299
0.19332
0.19334
0.193361
0.193382
0.193402
0.193423
0.193443
0.193464
0.193484
0.193504
0.193524
0.193545
0.193565
0.193585
0.193605
0.193625
0.193644
0.193664
0.193684
0.193703
0.193723
0.193743
0.193762
0.193781
0.193801
0.19382
0.193839
0.193858
0.193878
0.193897
0.193916
0.193934
0.193953
0.193972
0.193991
0.19401
0.194028
0.194047
0.194065
0.194084
0.194102
0.194121
0.194139
0.194157
0.194176
0.194194
0.194212
0.19423
0.194248
0.194266
0.194284
0.194302
0.194319
0.194337
0.194355
0.194372
0.19439
0.194408
0.194425
0.194442
0.19446
0.194477
0.194494
0.194512
0.194529
0.194546
0.194563
0.19458
0.194597
0.194614
0.194631
0.194648
0.194665
0.194682
0.194698
0.194715
0.194732
0.194748
0.194765
0.194781
0.194798
0.194814
0.19483
0.194847
0.194863
0.194879
0.194895
0.194911
0.194928
0.194944
0.19496
0.194976
0.194992
0.195007
0.195023
0.195039
0.195055
0.19507
0.195086
0.195102
0.195117
0.195133
0.195148
0.195164
0.195179
0.195195
0.19521
0.195225
0.195241
0.195256
0.195271
0.195286
0.195301
0.195316
0.195331
0.195346
0.195361
0.195376
0.195391
0.195406
0.195421
0.195436
0.19545
0.195465
0.19548
0.195494
0.195509
0.195523
0.195538
0.195552
0.195567
0.195581
0.195596
0.19561
0.195624
0.195638
0.195653
0.195667
0.195681
0.195695
0.195709
0.195723
0.195737
0.195751
0.195765
0.195779
0.195793
0.195807
0.195821
0.195834
0.195848
0.195862
0.195875
0.195889
0.195903
0.195916
0.19593
0.195943
0.195957
0.19597
0.195984
0.195997
0.19601
0.196024
0.196037
0.19605
0.196064
0.196077
0.19609
0.196103
0.196116
0.196129
0.196142
0.196155
0.196168
0.196181
0.196194
0.196207
0.19622
0.196233
0.196246
0.196258
0.196271
0.196284
0.196297
0.196309
0.196322
0.196334
0.196347
0.19636
0.196372
0.196385
0.196397
0.19641
0.196422
0.196434
0.196447
0.196459
0.196471
0.196484
0.196496
0.196508
0.19652
0.196532
0.196544
0.196557
0.196569
0.196581
0.196593
0.196605
0.196617
0.196629
0.196641
0.196652
0.196664
0.196676
0.196688
0.1967
0.196712
0.196723
0.196735
0.196747
0.196758
0.19677
0.196782
0.196793
0.196805
0.196816
0.196828
0.196839
0.196851
0.196862
0.196874
0.196885
0.196896
0.196908
0.196919
0.19693
0.196941
0.196953
0.196964
0.196975
0.196986
0.196997
0.197009
0.19702
0.197031
0.197042
0.197053
0.197064
0.197075
0.197086
0.197097
0.197108
0.197118
0.197129
0.19714
0.197151
0.197162
0.197172
0.197183
0.197194
0.197205
0.197215
0.197226
0.197237
0.197247
0.197258
0.197268
0.197279
0.197289
0.1973
0.19731
0.197321
0.197331
0.197342
0.197352
0.197362
0.197373
0.197383
0.197393
0.197404
0.197414
0.197424
0.197434
0.197445
0.197455
0.197465
0.197475
0.197485
0.197495
0.197505
0.197515
0.197525
0.197535
0.197545
0.197555
0.197565
0.197575
0.197585
0.197595
0.197605
0.197615
0.197624
0.197634
0.197644
0.197654
0.197664
0.197673
0.197683
0.197693
0.197702
0.197712
0.197722
0.197731
0.197741
0.19775
0.19776
0.197769
0.197779
0.197788
0.197798
0.197807
0.197816
0.197826
0.197835
0.197845
0.197854
0.197863
0.197872
0.197882
0.197891
0.1979
0.197909
0.197919
0.197928
0.197937
0.197946
0.197955
0.197964
0.197973
0.197982
0.197991
0.198
0.198009
0.198018
0.198027
0.198036
0.198045
0.198054
0.198063
0.198072
0.198081
0.198089
0.198098
0.198107
0.198116
0.198124
0.198133
0.198142
0.198151
0.198159
0.198168
0.198177
0.198185
0.198194
0.198202
0.198211
0.198219
0.198228
0.198236
0.198245
0.198253
0.198262
0.19827
0.198278
0.198287
0.198295
0.198303
0.198312
0.19832
0.198328
0.198337
0.198345
0.198353
0.198361
0.198369
0.198378
0.198386
0.198394
0.198402
0.19841
0.198418
0.198426
0.198434
0.198442
0.19845
0.198458
0.198466
0.198474
0.198482
0.19849
0.198497
0.198505
0.198513
0.198521
0.198529
0.198536
0.198544
0.198552
0.19856
0.198567
0.198575
0.198583
0.19859
0.198598
0.198605
0.198613
0.19862
0.198628
0.198636
0.198643
0.19865
0.198658
0.198665
0.198673
0.19868
0.198687
0.198695
0.198702
0.198709
0.198717
0.198724
0.198731
0.198738
0.198746
0.198753
0.19876
0.198767
0.198774
0.198781
0.198788
0.198795
0.198802
0.198809
0.198816
0.198823
0.19883
0.198837
0.198844
0.198851
0.198858
0.198864
0.198871
0.198878
0.198885
0.198891
0.198898
0.198905
0.198912
0.198918
0.198925
0.198931
0.198938
0.198945
0.198951
0.198958
0.198964
0.19897
0.198977
0.198983
0.19899
0.198996
0.199002
0.199009
0.199015
0.199021
0.199027
0.199034
0.19904
0.199046
0.199052
0.199058
0.199064
0.19907
0.199076
0.199082
0.199088
0.199094
0.1991
0.199106
0.199112
0.199118
0.199124
0.199129
0.199135
0.199141
0.199147
0.199152
0.199158
0.199164
0.199169
0.199175
0.19918
0.199186
0.199191
0.199197
0.199202
0.199207
0.199213
0.199218
0.199223
0.199229
0.199234
0.199239
0.199244
0.199249
0.199254
0.199259
0.199264
0.199269
0.199274
0.199279
0.199284
0.199289
0.199294
0.199299
0.199303
0.199308
0.199313
0.199317
0.199322
0.199327
0.199331
0.199336
0.19934
0.199344
0.199349
0.199353
0.199357
0.199362
0.199366
0.19937
0.199374
0.199378
0.199382
0.199386
0.19939
0.199394
0.199398
0.199402
0.199406
0.199409
0.199413
0.199417
0.19942
0.199424
0.199427
0.199431
0.199434
0.199437
0.199441
0.199444
0.199447
0.19945
0.199453
0.199456
0.199459
0.199462
0.199465
0.199468
0.199471
0.199474
0.199476
0.199479
0.199481
0.199484
0.199486
0.199489
0.199491
0.199493
0.199496
0.199498
0.1995
0.199502
0.199504
0.199506
0.199508
0.199509
0.199511
0.199513
0.199514
0.199516
0.199517
0.199519
0.19952
0.199522
0.199523
0.199524
0.199525
0.199526
0.199527
0.199528
0.199529
0.19953
0.19953
0.199531
0.199532
0.199532
0.199533
0.199533
0.199533
0.199534
0.199534
0.199534
0.199534
)
;

boundaryField
{
    bottom
    {
        type            fixedValue;
        value           uniform 0.1;
    }
    top
    {
        type            zeroGradient;
    }
    walls
    {
        type            zeroGradient;
    }
}


// ************************************************************************* //
