/*--------------------------------*- C++ -*----------------------------------*\
| =========                 |                                                 |
| \\      /  F ield         | foam-extend: Open Source CFD                    |
|  \\    /   O peration     | Version:     5.0                                |
|   \\  /    A nd           | Web:         http://www.foam-extend.org         |
|    \\/     M anipulation  |                                                 |
\*---------------------------------------------------------------------------*/
FoamFile
{
    version     2.0;
    format      ascii;
    class       volScalarField;
    location    "10000";
    object      alpha.water;
}
// * * * * * * * * * * * * * * * * * * * * * * * * * * * * * * * * * * * * * //

dimensions      [0 0 0 0 0 0 0];

internalField   nonuniform List<scalar> 
1500
(
0.199999
0.199999
0.199999
0.199999
0.199998
0.199998
0.199998
0.199998
0.199997
0.199997
0.199997
0.199997
0.199996
0.199996
0.199996
0.199996
0.199995
0.199995
0.199995
0.199995
0.199994
0.199994
0.199994
0.199994
0.199993
0.199993
0.199993
0.199993
0.199992
0.199992
0.199992
0.199992
0.199991
0.199991
0.199991
0.199991
0.19999
0.19999
0.19999
0.19999
0.199989
0.199989
0.199989
0.199989
0.199988
0.199988
0.199988
0.199988
0.199987
0.199987
0.199987
0.199987
0.199986
0.199986
0.199986
0.199986
0.199985
0.199985
0.199985
0.199985
0.199985
0.199984
0.199984
0.199984
0.199984
0.199983
0.199983
0.199983
0.199983
0.199982
0.199982
0.199982
0.199982
0.199981
0.199981
0.199981
0.199981
0.19998
0.19998
0.19998
0.19998
0.199979
0.199979
0.199979
0.199979
0.199978
0.199978
0.199978
0.199978
0.199977
0.199977
0.199977
0.199977
0.199976
0.199976
0.199976
0.199976
0.199975
0.199975
0.199975
0.199975
0.199974
0.199974
0.199974
0.199974
0.199974
0.199973
0.199973
0.199973
0.199973
0.199972
0.199972
0.199972
0.199972
0.199971
0.199971
0.199971
0.199971
0.19997
0.19997
0.19997
0.19997
0.199969
0.199969
0.199969
0.199969
0.199968
0.199968
0.199968
0.199968
0.199967
0.199967
0.199967
0.199967
0.199966
0.199966
0.199966
0.199966
0.199965
0.199965
0.199965
0.199965
0.199964
0.199964
0.199964
0.199964
0.199964
0.199963
0.199963
0.199963
0.199963
0.199962
0.199962
0.199962
0.199962
0.199961
0.199961
0.199961
0.199961
0.19996
0.19996
0.19996
0.19996
0.199959
0.199959
0.199959
0.199959
0.199958
0.199958
0.199958
0.199958
0.199957
0.199957
0.199957
0.199957
0.199956
0.199956
0.199956
0.199956
0.199955
0.199955
0.199955
0.199955
0.199954
0.199954
0.199954
0.199954
0.199954
0.199953
0.199953
0.199953
0.199953
0.199952
0.199952
0.199952
0.199952
0.199951
0.199951
0.199951
0.199951
0.19995
0.19995
0.19995
0.19995
0.199949
0.199949
0.199949
0.199949
0.199948
0.199948
0.199948
0.199948
0.199947
0.199947
0.199947
0.199947
0.199946
0.199946
0.199946
0.199946
0.199945
0.199945
0.199945
0.199945
0.199944
0.199944
0.199944
0.199944
0.199944
0.199943
0.199943
0.199943
0.199943
0.199942
0.199942
0.199942
0.199942
0.199941
0.199941
0.199941
0.199941
0.19994
0.19994
0.199939
0.199906
0.198337
0.195749
0.19321
0.19072
0.188278
0.185883
0.183534
0.181229
0.178968
0.176749
0.174571
0.172433
0.170334
0.168273
0.16625
0.164264
0.162312
0.160396
0.158513
0.156663
0.154846
0.15306
0.151305
0.149581
0.147885
0.146219
0.14458
0.142969
0.141385
0.139827
0.138295
0.136788
0.135305
0.133847
0.132412
0.131
0.12961
0.128243
0.126897
0.125573
0.124269
0.122985
0.121721
0.120477
0.119251
0.118045
0.116856
0.115686
0.114533
0.113397
0.112278
0.111175
0.110089
0.109019
0.107964
0.106925
0.1059
0.10489
0.103895
0.102913
0.101946
0.100992
0.100052
0.0991241
0.0982096
0.0973077
0.0964182
0.0955408
0.0946754
0.0938217
0.0929795
0.0921486
0.0913288
0.09052
0.0897218
0.0889342
0.0881569
0.0873898
0.0866326
0.0858853
0.0851476
0.0844194
0.0837005
0.0829907
0.08229
0.081598
0.0809148
0.0802402
0.0795739
0.0789159
0.0782661
0.0776242
0.0769903
0.076364
0.0757454
0.0751343
0.0745305
0.073934
0.0733446
0.0727622
0.0721868
0.0716181
0.0710562
0.0705008
0.0699519
0.0694094
0.0688732
0.0683432
0.0678192
0.0673013
0.0667893
0.0662831
0.0657826
0.0652878
0.0647985
0.0643147
0.0638363
0.0633632
0.0628953
0.0624326
0.061975
0.0615224
0.0610747
0.0606319
0.0601939
0.0597606
0.059332
0.0589079
0.0584884
0.0580733
0.0576626
0.0572563
0.0568542
0.0564564
0.0560627
0.055673
0.0552875
0.0549059
0.0545282
0.0541544
0.0537845
0.0534183
0.0530558
0.052697
0.0523418
0.0519902
0.051642
0.0512974
0.0509562
0.0506184
0.0502839
0.0499527
0.0496248
0.0493
0.0489785
0.04866
0.0483446
0.0480323
0.047723
0.0474167
0.0471132
0.0468127
0.046515
0.0462202
0.0459281
0.0456388
0.0453522
0.0450682
0.0447869
0.0445083
0.0442321
0.0439586
0.0436876
0.043419
0.0431529
0.0428892
0.0426279
0.042369
0.0421125
0.0418582
0.0416062
0.0413565
0.041109
0.0408637
0.0406205
0.0403796
0.0401407
0.0399039
0.0396692
0.0394366
0.039206
0.0389774
0.0387508
0.0385261
0.0383033
0.0380825
0.0378635
0.0376465
0.0374312
0.0372178
0.0370062
0.0367964
0.0365883
0.036382
0.0361774
0.0359745
0.0357733
0.0355738
0.0353759
0.0351797
0.034985
0.034792
0.0346005
0.0344106
0.0342222
0.0340353
0.03385
0.0336662
0.0334838
0.0333029
0.0331234
0.0329454
0.0327688
0.0325935
0.0324197
0.0322472
0.0320761
0.0319063
0.0317379
0.0315708
0.0314049
0.0312404
0.0310771
0.0309151
0.0307543
0.0305948
0.0304365
0.0302793
0.0301234
0.0299687
0.0298151
0.0296627
0.0295115
0.0293613
0.0292123
0.0290645
0.0289177
0.028772
0.0286274
0.0284838
0.0283413
0.0281999
0.0280595
0.0279201
0.0277818
0.0276444
0.0275081
0.0273727
0.0272383
0.0271049
0.0269724
0.0268409
0.0267103
0.0265807
0.026452
0.0263242
0.0261973
0.0260713
0.0259461
0.0258219
0.0256985
0.025576
0.0254544
0.0253336
0.0252136
0.0250945
0.0249761
0.0248587
0.024742
0.0246261
0.024511
0.0243967
0.0242831
0.0241704
0.0240583
0.0239471
0.0238366
0.0237269
0.0236178
0.0235096
0.023402
0.0232951
0.023189
0.0230836
0.0229788
0.0228748
0.0227714
0.0226687
0.0225667
0.0224654
0.0223647
0.0222647
0.0221653
0.0220665
0.0219684
0.021871
0.0217741
0.0216779
0.0215823
0.0214873
0.0213929
0.0212991
0.0212059
0.0211133
0.0210213
0.0209299
0.020839
0.0207487
0.020659
0.0205698
0.0204812
0.0203931
0.0203056
0.0202186
0.0201321
0.0200462
0.0199608
0.019876
0.0197916
0.0197078
0.0196245
0.0195417
0.0194593
0.0193775
0.0192962
0.0192154
0.019135
0.0190552
0.0189758
0.0188968
0.0188184
0.0187404
0.0186629
0.0185858
0.0185092
0.0184331
0.0183574
0.0182821
0.0182073
0.0181329
0.0180589
0.0179854
0.0179123
0.0178396
0.0177674
0.0176955
0.0176241
0.0175531
0.0174824
0.0174122
0.0173424
0.017273
0.017204
0.0171353
0.0170671
0.0169992
0.0169318
0.0168647
0.0167979
0.0167316
0.0166656
0.0166
0.0165347
0.0164698
0.0164053
0.0163411
0.0162773
0.0162138
0.0161507
0.0160879
0.0160255
0.0159634
0.0159016
0.0158402
0.0157791
0.0157184
0.0156579
0.0155978
0.015538
0.0154785
0.0154194
0.0153606
0.015302
0.0152438
0.0151859
0.0151283
0.015071
0.015014
0.0149573
0.0149009
0.0148448
0.014789
0.0147335
0.0146783
0.0146233
0.0145687
0.0145143
0.0144602
0.0144064
0.0143528
0.0142996
0.0142466
0.0141938
0.0141414
0.0140892
0.0140373
0.0139856
0.0139342
0.013883
0.0138322
0.0137815
0.0137311
0.013681
0.0136311
0.0135815
0.0135321
0.013483
0.0134341
0.0133854
0.013337
0.0132889
0.0132409
0.0131932
0.0131457
0.0130985
0.0130515
0.0130047
0.0129581
0.0129118
0.0128657
0.0128198
0.0127742
0.0127287
0.0126835
0.0126385
0.0125937
0.0125491
0.0125047
0.0124605
0.0124166
0.0123728
0.0123293
0.012286
0.0122428
0.0121999
0.0121572
0.0121146
0.0120723
0.0120301
0.0119882
0.0119465
0.0119049
0.0118635
0.0118224
0.0117814
0.0117406
0.0117
0.0116595
0.0116193
0.0115792
0.0115393
0.0114996
0.0114601
0.0114208
0.0113816
0.0113426
0.0113038
0.0112652
0.0112267
0.0111884
0.0111503
0.0111123
0.0110745
0.0110369
0.0109994
0.0109621
0.010925
0.010888
0.0108512
0.0108146
0.0107781
0.0107417
0.0107056
0.0106695
0.0106337
0.010598
0.0105624
0.010527
0.0104918
0.0104567
0.0104217
0.0103869
0.0103523
0.0103178
0.0102834
0.0102492
0.0102151
0.0101812
0.0101474
0.0101137
0.0100802
0.0100469
0.0100136
0.00998056
0.0099476
0.00991479
0.00988211
0.00984956
0.00981715
0.00978487
0.00975273
0.00972071
0.00968883
0.00965707
0.00962545
0.00959395
0.00956258
0.00953133
0.00950022
0.00946922
0.00943835
0.00940761
0.00937699
0.00934648
0.00931611
0.00928585
0.00925571
0.00922569
0.00919579
0.009166
0.00913634
0.00910679
0.00907735
0.00904804
0.00901883
0.00898974
0.00896076
0.00893189
0.00890314
0.0088745
0.00884596
0.00881754
0.00878923
0.00876102
0.00873292
0.00870493
0.00867704
0.00864927
0.00862159
0.00859402
0.00856656
0.0085392
0.00851194
0.00848478
0.00845773
0.00843077
0.00840392
0.00837717
0.00835051
0.00832396
0.0082975
0.00827114
0.00824488
0.00821871
0.00819264
0.00816667
0.00814079
0.008115
0.00808931
0.00806371
0.00803821
0.00801279
0.00798747
0.00796224
0.0079371
0.00791205
0.00788709
0.00786222
0.00783744
0.00781274
0.00778814
0.00776362
0.00773919
0.00771484
0.00769058
0.0076664
0.00764231
0.00761831
0.00759438
0.00757055
0.00754679
0.00752312
0.00749952
0.00747601
0.00745258
0.00742924
0.00740597
0.00738278
0.00735967
0.00733664
0.00731369
0.00729081
0.00726802
0.0072453
0.00722266
0.00720009
0.0071776
0.00715519
0.00713285
0.00711058
0.00708839
0.00706628
0.00704424
0.00702227
0.00700037
0.00697855
0.00695679
0.00693511
0.0069135
0.00689196
0.0068705
0.0068491
0.00682777
0.00680651
0.00678532
0.0067642
0.00674315
0.00672216
0.00670124
0.00668039
0.00665961
0.00663889
0.00661824
0.00659765
0.00657713
0.00655668
0.00653629
0.00651596
0.0064957
0.0064755
0.00645537
0.0064353
0.00641529
0.00639534
0.00637546
0.00635564
0.00633588
0.00631618
0.00629654
0.00627696
0.00625744
0.00623798
0.00621858
0.00619925
0.00617997
0.00616074
0.00614158
0.00612248
0.00610343
0.00608444
0.00606551
0.00604663
0.00602781
0.00600905
0.00599035
0.0059717
0.0059531
0.00593456
0.00591608
0.00589765
0.00587927
0.00586095
0.00584268
0.00582447
0.00580631
0.0057882
0.00577015
0.00575215
0.0057342
0.0057163
0.00569846
0.00568066
0.00566292
0.00564523
0.00562759
0.00561
0.00559246
0.00557497
0.00555753
0.00554014
0.0055228
0.00550551
0.00548826
0.00547107
0.00545392
0.00543683
0.00541978
0.00540277
0.00538582
0.00536891
0.00535205
0.00533524
0.00531847
0.00530175
0.00528508
0.00526845
0.00525187
0.00523533
0.00521884
0.0052024
0.00518599
0.00516964
0.00515333
0.00513706
0.00512083
0.00510465
0.00508852
0.00507242
0.00505637
0.00504037
0.0050244
0.00500848
0.0049926
0.00497677
0.00496097
0.00494522
0.00492951
0.00491384
0.00489821
0.00488262
0.00486708
0.00485157
0.00483611
0.00482068
0.0048053
0.00478996
0.00477465
0.00475939
0.00474416
0.00472898
0.00471383
0.00469872
0.00468365
0.00466862
0.00465363
0.00463868
0.00462376
0.00460889
0.00459405
0.00457924
0.00456448
0.00454975
0.00453506
0.00452041
0.00450579
0.00449121
0.00447667
0.00446216
0.00444769
0.00443326
0.00441886
0.0044045
0.00439017
0.00437588
0.00436162
0.0043474
0.00433321
0.00431906
0.00430495
0.00429086
0.00427682
0.0042628
0.00424882
0.00423488
0.00422097
0.00420709
0.00419324
0.00417943
0.00416566
0.00415191
0.0041382
0.00412452
0.00411088
0.00409726
0.00408368
0.00407013
0.00405662
0.00404313
0.00402968
0.00401626
0.00400287
0.00398952
0.00397619
0.0039629
0.00394964
0.0039364
0.0039232
0.00391003
0.0038969
0.00388379
0.00387071
0.00385766
0.00384465
0.00383166
0.0038187
0.00380578
0.00379288
0.00378001
0.00376717
0.00375437
0.00374159
0.00372884
0.00371612
0.00370343
0.00369076
0.00367813
0.00366553
0.00365295
0.0036404
0.00362788
0.00361539
0.00360293
0.00359049
0.00357809
0.00356571
0.00355336
0.00354104
0.00352874
0.00351647
0.00350423
0.00349202
0.00347983
0.00346767
0.00345554
0.00344344
0.00343136
0.00341931
0.00340729
0.00339529
0.00338332
0.00337137
0.00335945
0.00334756
0.0033357
0.00332386
0.00331204
0.00330025
0.00328849
0.00327675
0.00326504
0.00325336
0.0032417
0.00323006
0.00321846
0.00320687
0.00319531
0.00318378
0.00317227
0.00316079
0.00314933
0.00313789
0.00312649
0.0031151
0.00310374
0.0030924
0.00308109
0.00306981
0.00305854
0.00304731
0.00303609
0.0030249
0.00301373
0.00300259
0.00299147
0.00298038
0.00296931
0.00295826
0.00294724
0.00293624
0.00292526
0.00291431
0.00290337
0.00289247
0.00288158
0.00287072
0.00285989
0.00284907
0.00283828
0.00282751
0.00281676
0.00280604
0.00279534
0.00278466
0.00277401
0.00276337
0.00275276
0.00274218
0.00273161
0.00272107
0.00271055
0.00270005
0.00268957
0.00267911
0.00266868
0.00265827
0.00264788
0.00263752
0.00262717
0.00261685
0.00260655
0.00259627
0.00258601
0.00257577
0.00256556
0.00255536
0.00254519
0.00253504
0.00252491
0.0025148
0.00250472
0.00249465
0.00248461
0.00247458
0.00246458
0.0024546
0.00244464
0.0024347
0.00242478
0.00241488
0.00240501
0.00239515
0.00238532
0.0023755
0.00236571
0.00235594
0.00234618
0.00233645
0.00232674
0.00231705
0.00230738
0.00229773
0.0022881
0.00227849
0.00226891
0.00225934
0.00224979
0.00224026
0.00223076
0.00222127
0.0022118
0.00220236
0.00219293
0.00218352
0.00217414
0.00216477
0.00215542
0.0021461
0.00213679
0.0021275
0.00211824
0.00210899
0.00209976
0.00209056
0.00208137
0.0020722
0.00206306
0.00205393
0.00204482
0.00203573
0.00202666
0.00201762
0.00200859
0.00199958
0.00199059
0.00198162
0.00197267
0.00196374
0.00195482
0.00194593
0.00193706
0.00192821
0.00191937
0.00191056
0.00190177
0.00189299
0.00188424
0.0018755
0.00186678
0.00185809
0.00184941
0.00184075
0.00183211
0.0018235
0.0018149
0.00180632
0.00179776
0.00178921
0.00178069
0.00177219
0.00176371
0.00175524
0.0017468
0.00173838
0.00172997
0.00172158
0.00171322
0.00170487
0.00169654
0.00168824
0.00167995
0.00167168
0.00166343
0.0016552
0.00164699
0.0016388
0.00163062
0.00162247
0.00161434
0.00160623
0.00159813
0.00159006
0.001582
0.00157397
0.00156595
0.00155796
0.00154998
0.00154202
0.00153409
0.00152617
0.00151827
0.00151039
0.00150254
0.0014947
0.00148688
0.00147908
0.0014713
0.00146354
0.0014558
0.00144808
0.00144038
0.00143271
0.00142505
0.00141741
0.00140979
0.00140219
0.00139461
0.00138705
0.00137951
0.00137199
0.0013645
0.00135702
0.00134956
0.00134213
0.00133471
0.00132731
0.00131994
0.00131258
0.00130525
0.00129794
0.00129064
0.00128337
0.00127612
0.00126889
0.00126168
0.00125449
0.00124733
0.00124018
0.00123306
0.00122595
0.00121887
0.00121181
0.00120477
0.00119775
0.00119076
0.00118378
0.00117683
0.0011699
0.00116299
0.0011561
0.00114924
0.0011424
0.00113557
0.00112878
0.001122
0.00111525
0.00110852
0.00110181
0.00109512
0.00108846
0.00108182
0.0010752
0.00106861
0.00106204
0.00105549
0.00104897
0.00104247
0.00103599
0.00102954
0.00102311
0.00101671
0.00101033
0.00100397
0.000997638
0.000991331
0.000985049
0.000978791
0.000972558
0.00096635
0.000960167
0.00095401
0.000947878
0.000941772
0.000935691
0.000929637
0.000923609
0.000917607
0.000911631
0.000905682
0.000899759
0.000893864
0.000887996
0.000882155
0.000876341
0.000870556
0.000864798
0.000859068
0.000853366
0.000847693
0.000842048
0.000836432
0.000830846
0.000825288
0.00081976
0.000814262
0.000808794
0.000803356
0.000797948
0.000792571
0.000787225
0.00078191
0.000776626
0.000771374
0.000766154
0.000760966
0.000755811
0.000750688
0.000745598
0.000740541
0.000735518
0.000730529
0.000725574
0.000720653
0.000715767
0.000710916
0.000706101
0.000701321
0.000696577
0.000691869
0.000687198
0.000682564
0.000677967
0.000673408
0.000668887
0.000664404
0.00065996
0.000655555
0.00065119
0.000646864
0.000642579
0.000638334
0.00063413
0.000629968
0.000625847
0.000621768
0.000617732
0.000613739
0.000609789
0.000605883
0.000602021
0.000598204
0.000594432
0.000590706
0.000587025
0.00058339
0.000579803
0.000576262
0.00057277
0.000569325
0.000565929
0.000562582
0.000559284
0.000556036
0.000552839
0.000549692
0.000546597
0.000543553
0.000540562
0.000537623
0.000534737
0.000531905
0.000529126
0.000526402
0.000523733
0.000521119
0.000518561
0.000516059
0.000513614
0.000511225
0.000508894
0.000506621
0.000504406
0.00050225
0.000500152
0.000498114
0.000496136
0.000494218
0.000492361
0.000490565
0.000488829
0.000487156
0.000485544
0.000483994
0.000482507
0.000481083
0.000479721
0.000478423
0.000477189
0.000476018
0.000474912
0.000473869
0.000472891
0.000471978
0.000471129
0.000470346
0.000469627
0.000468973
0.000468385
0.000467862
0.000467404
0.000467012
0.000466685
0.000466423
0.000466227
0.000466097
0.000466032
)
;

boundaryField
{
    bottom
    {
        type            fixedValue;
        value           uniform 0.1;
    }
    top
    {
        type            zeroGradient;
    }
    walls
    {
        type            zeroGradient;
    }
}


// ************************************************************************* //
