/*--------------------------------*- C++ -*----------------------------------*\
| =========                 |                                                 |
| \\      /  F ield         | foam-extend: Open Source CFD                    |
|  \\    /   O peration     | Version:     5.0                                |
|   \\  /    A nd           | Web:         http://www.foam-extend.org         |
|    \\/     M anipulation  |                                                 |
\*---------------------------------------------------------------------------*/
FoamFile
{
    version     2.0;
    format      ascii;
    class       surfaceScalarField;
    location    "10000";
    object      phi;
}
// * * * * * * * * * * * * * * * * * * * * * * * * * * * * * * * * * * * * * //

dimensions      [0 3 -1 0 0 0 0];

internalField   nonuniform List<scalar> 
1499
(
-3.19565e-14
1.98322e-14
-3.19516e-14
1.65044e-14
-1.03376e-14
6.0962e-14
-6.41021e-14
5.11499e-14
-9.56945e-15
-4.07305e-14
3.36937e-14
2.53393e-14
1.37898e-14
-5.53214e-14
4.4623e-15
3.67515e-14
-7.50133e-15
3.40154e-14
-3.08823e-14
-3.36862e-14
7.66147e-15
-2.16239e-14
-1.1965e-15
1.92184e-14
1.84298e-14
-8.87486e-15
-1.82662e-14
1.55323e-14
7.02492e-14
-4.38828e-14
-5.02248e-14
1.25125e-14
3.17362e-14
-1.37777e-14
-2.02019e-14
9.12105e-15
3.63967e-14
-6.91281e-14
1.85278e-14
1.0356e-14
-6.76086e-14
6.30953e-14
-1.14065e-14
1.67453e-14
-4.36366e-14
3.62366e-14
2.99825e-14
-1.73856e-14
-3.364e-14
5.56764e-15
6.55691e-14
-4.72587e-14
-9.78709e-15
1.75399e-14
-1.84581e-14
1.6038e-15
-3.82882e-15
2.16734e-14
-3.82173e-14
6.47657e-14
1.00651e-14
-5.0765e-14
4.48811e-15
2.74064e-14
-1.88652e-14
-1.1921e-14
4.178e-14
-3.70544e-14
1.64719e-14
-9.20232e-15
2.10907e-14
1.0715e-14
1.2907e-17
-1.73704e-14
1.89637e-14
-2.37586e-14
-1.01011e-14
4.1121e-14
-3.37429e-14
-2.01894e-14
4.5958e-14
-1.36336e-14
-1.66666e-14
6.48833e-14
-4.25124e-14
4.81253e-14
-7.46304e-14
3.80951e-14
-2.87757e-14
5.18307e-14
-8.88297e-15
-2.87325e-14
3.58452e-14
-5.62242e-14
3.34923e-14
-2.76773e-14
2.1293e-14
-3.10748e-14
9.59044e-14
-2.9142e-14
-4.9075e-14
1.4539e-14
1.60921e-14
9.7156e-15
1.09504e-14
-1.96449e-14
-4.07792e-14
1.00745e-13
-5.5714e-14
3.22889e-14
-4.49114e-14
3.3222e-14
-3.71218e-15
-6.63613e-14
9.11049e-14
-2.58014e-14
-9.6646e-15
-9.34196e-15
-1.58765e-14
1.57966e-14
4.66393e-14
-7.55008e-15
-5.42148e-14
4.00864e-14
-6.11602e-14
4.89315e-14
-3.03557e-14
5.68084e-14
-5.31597e-14
8.96685e-15
2.12777e-15
1.65767e-15
-3.03169e-14
5.66819e-14
8.51947e-15
-2.30379e-14
-1.50012e-14
1.60991e-14
-1.64108e-14
-2.30646e-14
5.38614e-14
-2.50646e-14
4.52898e-14
-1.11697e-13
1.22056e-13
-2.62326e-14
-2.78858e-14
3.19087e-15
1.05091e-14
3.08513e-15
-2.22775e-15
2.72357e-14
-5.34207e-16
-5.95381e-14
3.31251e-14
-4.10285e-14
5.54158e-14
-2.3862e-14
2.56195e-14
-1.43974e-15
-5.04871e-14
4.71362e-14
1.87065e-14
-4.55891e-14
4.60522e-15
2.43746e-14
-1.01405e-14
9.39684e-15
-2.53791e-15
-6.76803e-14
2.99253e-14
3.38074e-14
-4.74713e-14
1.92466e-14
5.33171e-14
-1.25136e-14
-5.48736e-14
7.27649e-14
-3.88833e-14
-4.75453e-15
-4.66157e-14
1.05047e-13
-2.97408e-16
2.29939e-15
-7.62392e-16
-5.95912e-14
7.06827e-15
-4.30387e-14
8.5506e-14
-2.11043e-14
6.68775e-15
1.06797e-14
-4.81846e-14
9.27096e-15
1.53006e-14
-1.41614e-14
1.42663e-14
3.21273e-14
2.10137e-14
-1.54974e-14
2.06529e-14
-8.69403e-14
3.69884e-14
6.9636e-15
-3.48914e-14
7.90068e-15
1.09655e-14
-8.85571e-16
4.18965e-14
-2.48458e-15
4.83578e-14
-4.96749e-14
5.45691e-17
-1.06672e-14
-3.11565e-14
6.66882e-14
2.1804e-14
-7.57452e-14
-3.95724e-14
4.09988e-14
-2.47548e-14
5.6158e-14
-3.36466e-14
2.30596e-14
-3.37628e-15
3.09004e-14
-2.12252e-14
-3.30746e-14
1.89665e-14
4.38035e-14
-7.80476e-14
3.74583e-14
-1.6847e-14
3.46608e-14
2.28422e-14
-1.41481e-14
-4.1426e-14
4.01257e-14
-2.74234e-14
2.40265e-14
-2.27327e-14
1.33223e-15
4.69817e-15
-4.05474e-14
3.24823e-14
4.74042e-14
-2.98965e-14
-8.99831e-15
4.0047e-14
-4.67356e-14
6.28734e-14
-5.32181e-14
4.02533e-14
-3.80245e-14
-1.83844e-14
4.44054e-14
1.32418e-14
-5.27126e-15
6.41542e-15
-6.29899e-14
-7.35118e-14
1.69235e-13
-7.609e-14
1.72693e-14
-7.36329e-14
9.04096e-14
2.69575e-14
-4.96638e-14
1.05684e-13
-1.0647e-13
4.9006e-14
-5.08153e-14
5.68668e-14
-1.31473e-13
7.78419e-14
1.4118e-15
5.58073e-15
-1.13817e-13
6.48735e-14
-3.55033e-14
1.1227e-13
7.81056e-14
3.57212e-14
-2.42785e-13
2.08987e-13
-1.41071e-13
6.16336e-14
3.68457e-14
-1.68296e-15
7.45783e-14
2.04392e-17
-1.88726e-13
1.42314e-13
1.303e-13
-2.33806e-14
-2.51371e-13
1.40041e-13
2.2669e-13
-2.61273e-13
7.93078e-14
-9.48244e-14
7.42603e-14
-7.78364e-14
-4.78461e-14
-7.78845e-14
3.41529e-13
2.89617e-14
-1.75932e-13
-1.44595e-13
-5.64332e-14
3.89768e-13
-2.62291e-13
6.73096e-15
1.25148e-14
1.38033e-13
-2.55141e-14
-9.69635e-14
1.45571e-15
-1.29561e-13
3.41863e-13
3.87647e-14
-4.5135e-13
2.26264e-13
5.05694e-14
-3.67135e-14
9.56719e-14
-3.04911e-13
4.80993e-14
3.04963e-13
-3.5112e-13
2.64127e-13
-2.24562e-13
2.30693e-13
-1.43033e-13
-2.13859e-14
9.36068e-14
-4.9028e-14
1.38696e-14
1.24649e-13
1.56915e-13
-1.35709e-13
-1.50259e-13
6.38604e-14
2.39932e-14
-2.6552e-14
1.17634e-14
1.93707e-14
-5.61426e-15
-3.41553e-14
1.0843e-13
-1.76682e-13
1.59636e-15
1.48326e-13
7.70434e-15
-6.05229e-14
2.01522e-15
-1.41006e-14
1.64503e-13
-5.79777e-14
1.12417e-14
1.89988e-15
8.26961e-16
-2.04794e-13
4.12601e-14
-9.88348e-14
2.98492e-13
-2.29899e-13
7.11014e-14
1.75802e-13
-4.6784e-13
5.76925e-13
-2.23286e-13
1.38247e-13
-1.42998e-13
2.77195e-14
1.69017e-14
-2.92733e-13
2.49553e-13
-1.10717e-13
1.94582e-13
-1.99462e-13
9.54282e-14
-9.70547e-14
5.0905e-14
1.7351e-13
1.39372e-14
6.00857e-14
-6.79216e-14
2.0975e-13
-1.07178e-13
-5.17252e-15
1.29093e-13
-1.7293e-13
5.91584e-14
1.22044e-13
-1.66719e-13
-1.38038e-13
2.63342e-13
-1.80596e-14
-1.79236e-13
2.26593e-13
-1.3767e-13
-8.92576e-15
3.37328e-13
-6.58322e-14
-1.93259e-13
1.76672e-13
1.10187e-14
4.15045e-14
-1.09568e-13
2.0136e-13
-1.19611e-13
5.37267e-14
-8.79827e-14
2.52814e-13
-1.15046e-13
1.23781e-13
1.50137e-13
-3.75371e-13
3.0595e-13
3.38684e-14
-1.97303e-14
-6.02331e-14
2.95905e-15
1.03451e-13
-1.25995e-13
1.94346e-13
-3.09684e-14
-1.72668e-13
7.27799e-14
1.25255e-13
1.58153e-13
7.56668e-14
-2.30903e-14
8.57034e-16
2.65197e-14
-1.05589e-13
-2.05764e-14
1.18765e-13
1.43693e-13
-1.12934e-13
1.44e-13
-1.56137e-15
1.88923e-14
-8.15396e-14
4.05185e-14
-9.49013e-14
1.37206e-13
1.29481e-13
-1.31764e-13
1.55002e-13
3.38594e-14
2.20814e-14
6.89528e-14
-3.45148e-14
4.31245e-14
1.16913e-13
-1.11928e-13
3.05703e-14
1.72674e-13
-1.34002e-13
1.58231e-13
-1.72754e-13
1.4045e-13
3.66622e-14
-5.31041e-14
-2.10451e-14
9.54091e-14
-4.67979e-14
8.84102e-14
7.53284e-14
6.84748e-14
-8.47904e-14
-6.34213e-14
1.00472e-13
6.07173e-14
-5.82922e-14
1.04145e-14
1.32684e-13
-4.65634e-14
2.22485e-14
8.01707e-14
-5.43375e-14
1.29007e-13
-2.15004e-14
-3.66667e-14
1.08273e-13
3.20258e-15
9.08866e-15
6.62053e-14
7.86473e-14
-3.62255e-14
1.29413e-14
3.59275e-14
9.16096e-14
-2.06401e-14
2.38497e-14
5.92084e-14
-3.18527e-14
2.95623e-14
6.29044e-14
2.30034e-14
3.43371e-14
-9.1109e-14
1.47377e-13
1.16441e-14
2.60271e-16
7.40556e-14
-3.95097e-14
7.62938e-14
-4.21233e-14
1.2823e-13
-1.29384e-13
7.72584e-14
6.91089e-14
4.17237e-14
1.32881e-14
-7.35284e-14
1.08898e-13
1.03773e-13
-2.31422e-14
-2.83277e-14
-2.21338e-15
5.77749e-14
1.05036e-13
2.23006e-14
-8.94073e-14
1.07182e-13
1.51282e-14
2.62522e-14
-7.70102e-14
1.70034e-13
-3.64034e-14
4.83333e-14
-3.48729e-15
4.5514e-14
-2.39404e-15
-9.60537e-14
1.32931e-13
-4.34137e-14
1.94081e-14
8.33138e-14
3.28923e-14
-2.44183e-14
1.7637e-14
6.99518e-15
4.85782e-14
1.00516e-13
6.33826e-14
4.0433e-15
8.24189e-14
3.12713e-14
-5.25967e-14
2.85455e-14
6.71979e-14
2.59091e-14
-1.82964e-14
2.51482e-14
-1.15695e-15
6.87786e-14
-1.1751e-14
1.38408e-14
4.25031e-14
-5.23562e-14
6.01529e-14
-2.44518e-14
2.32332e-14
-3.91352e-14
7.21388e-14
6.91872e-15
-3.3361e-15
2.1748e-14
3.41712e-15
8.97804e-14
-6.25022e-14
5.9969e-16
4.84889e-14
-2.75064e-14
1.20917e-13
-3.93496e-14
-2.63117e-14
1.34687e-14
3.40073e-14
1.58164e-14
1.35322e-14
3.6969e-14
-1.10646e-14
1.08619e-13
-6.07588e-15
-3.13828e-14
4.45825e-14
-3.82177e-15
7.49166e-14
-3.4916e-15
1.80608e-14
-5.88321e-14
6.77225e-14
1.17185e-13
-8.41559e-14
5.41758e-14
9.54286e-15
1.13535e-15
5.72404e-14
-4.50837e-14
6.17313e-14
-4.85228e-14
6.51068e-14
-2.03089e-14
5.43563e-14
1.8631e-14
8.84438e-15
2.90389e-14
-2.95964e-14
3.22699e-14
-1.0414e-14
3.7776e-14
7.69539e-15
3.09565e-14
2.57462e-14
-8.61862e-15
6.40323e-14
-1.5906e-14
4.02376e-14
4.20744e-14
-4.34664e-14
1.23809e-14
1.8771e-14
3.20737e-14
4.30452e-14
-5.94002e-14
-1.0177e-16
6.83853e-14
3.82473e-14
-7.32213e-14
4.80901e-14
-5.15522e-14
6.25759e-14
1.71872e-14
-3.2044e-14
-1.37913e-15
2.69756e-14
-6.53804e-15
5.09589e-14
2.46415e-14
2.83589e-14
-3.14265e-14
3.56719e-14
9.93303e-15
5.31872e-14
1.45495e-14
1.5939e-14
5.43589e-15
2.24273e-14
-1.94426e-15
-2.09598e-14
1.10311e-13
-3.95329e-14
-8.86359e-15
3.90237e-14
-4.3511e-15
-3.14258e-16
6.74805e-15
6.28051e-14
1.84141e-14
2.36876e-14
5.1779e-15
3.51377e-14
9.79762e-15
-4.12598e-14
3.39996e-14
1.81109e-14
3.43256e-14
9.24257e-15
-4.59338e-15
3.50046e-14
1.47329e-15
5.15665e-14
-1.92966e-14
9.93313e-15
7.00354e-14
-2.14275e-14
4.51784e-14
-1.28936e-14
1.97177e-14
-1.01714e-14
3.83075e-14
3.07454e-14
-1.76064e-14
2.68067e-14
2.91394e-14
4.30856e-14
-2.56273e-14
3.342e-14
2.94621e-14
1.64435e-14
2.69212e-14
7.86394e-14
-7.37702e-15
3.54838e-14
5.36008e-14
2.50593e-14
4.49823e-14
-3.29168e-14
6.26891e-14
2.66351e-14
3.91347e-15
5.25427e-14
2.79444e-14
2.19642e-14
4.55427e-14
1.28266e-14
3.99771e-14
2.30699e-14
3.19578e-14
1.28788e-14
5.24399e-14
6.83764e-14
7.22765e-16
1.81672e-14
2.73389e-14
6.20585e-14
9.42265e-15
4.46215e-14
-1.45486e-14
3.51878e-14
1.27901e-14
3.35422e-14
5.24696e-14
1.36043e-14
3.09984e-14
5.54261e-14
1.61974e-14
8.39695e-15
2.22578e-14
5.45679e-14
2.93014e-14
3.90176e-14
7.21232e-15
4.53303e-14
5.81181e-14
2.47174e-14
1.9294e-14
4.40307e-14
3.95661e-14
1.73084e-14
3.3021e-14
1.93941e-14
5.58337e-14
5.65875e-15
6.1549e-14
1.95868e-14
1.69429e-14
3.72648e-14
5.47422e-14
2.29469e-14
6.06153e-14
2.37296e-14
3.84226e-14
3.61336e-14
6.36598e-14
2.57508e-14
5.34923e-14
3.21381e-14
5.27266e-14
2.9218e-14
3.66916e-14
4.06535e-14
6.1087e-14
2.04737e-14
4.13415e-14
2.88969e-14
4.94795e-14
5.79463e-14
5.44295e-14
4.39808e-14
2.70188e-14
3.80896e-14
5.37641e-14
1.78645e-14
5.86893e-14
5.01667e-14
1.78356e-14
4.21774e-14
5.61881e-14
3.51582e-15
6.95013e-14
4.51807e-14
3.44437e-14
6.13642e-14
3.34419e-14
3.9572e-14
2.83083e-14
3.78846e-14
2.05855e-14
5.50843e-14
2.55708e-14
3.9509e-14
4.04072e-14
3.30108e-14
4.49107e-14
2.46051e-14
5.29476e-14
3.60099e-14
4.72526e-14
1.39962e-14
3.82235e-14
4.27025e-14
5.28255e-14
2.76534e-14
4.4982e-14
2.39969e-14
1.35513e-14
4.10671e-14
4.95734e-14
3.08672e-14
3.45074e-14
3.2281e-14
1.85902e-14
5.3944e-14
2.4323e-14
3.40237e-14
1.37393e-14
5.74077e-14
1.83181e-14
3.88456e-14
3.12381e-14
4.47966e-14
1.70175e-14
4.83468e-14
2.51168e-14
1.70462e-14
3.32361e-14
3.71377e-14
1.89933e-14
3.12225e-14
4.7418e-14
1.37837e-14
4.68974e-14
4.00693e-14
3.47742e-14
2.81492e-14
3.31685e-14
2.71109e-14
1.19656e-14
4.36585e-14
3.87686e-14
1.95984e-14
2.2725e-14
3.74722e-14
3.6538e-14
1.93426e-14
1.79706e-14
3.90663e-14
3.45433e-14
4.24454e-14
1.91943e-14
3.81662e-14
4.2026e-14
3.01108e-14
3.1864e-14
1.77221e-14
4.59448e-14
4.95195e-14
2.54147e-14
5.17356e-14
2.51662e-14
3.62412e-14
6.36477e-14
2.6523e-14
2.08153e-14
4.07176e-14
3.84206e-14
3.9542e-14
3.56263e-14
1.94636e-14
4.89484e-14
1.79185e-14
4.28513e-14
4.13865e-14
1.98919e-14
4.78901e-14
2.1058e-14
4.06789e-14
3.38e-14
3.87948e-14
3.99939e-14
1.93944e-14
3.89889e-14
3.04138e-14
3.8965e-14
3.10341e-14
3.46872e-14
2.21595e-14
3.15294e-14
1.85195e-14
2.93811e-14
2.91138e-14
2.08492e-14
2.20779e-14
4.23218e-14
2.18424e-14
2.71488e-14
3.26149e-14
3.1451e-14
3.38559e-14
1.35485e-14
2.0047e-14
3.20846e-14
4.67074e-14
2.57529e-14
3.07695e-14
1.65197e-14
5.05051e-14
3.02896e-17
1.87938e-14
2.83616e-14
3.99576e-14
-1.02228e-15
1.10714e-14
2.19131e-14
2.06587e-14
8.95509e-16
1.22633e-14
4.49532e-14
3.39295e-14
-2.12659e-15
-3.54411e-15
3.86139e-14
-1.22011e-14
-2.8556e-15
4.64868e-16
2.22473e-14
-5.64358e-15
8.87347e-15
7.1964e-15
8.22217e-15
1.5359e-14
2.44045e-15
2.6208e-14
2.31906e-14
-4.04782e-15
2.03218e-14
2.69758e-14
3.13593e-14
1.5126e-14
1.96697e-14
4.71585e-14
2.33006e-16
8.11255e-15
2.27303e-14
2.1563e-14
3.36857e-14
3.7108e-14
7.2362e-15
2.04521e-14
1.81234e-14
3.57486e-14
2.1537e-14
4.15141e-14
6.90539e-15
2.48563e-14
2.60823e-14
1.22879e-14
3.08483e-14
2.61983e-14
8.04187e-15
3.74925e-14
4.59684e-14
1.84043e-14
2.55724e-14
3.38324e-14
5.22372e-14
1.82898e-14
5.36127e-15
2.29911e-14
1.26214e-14
1.5667e-15
2.74769e-14
2.66286e-14
2.24829e-14
3.30928e-14
1.82576e-14
2.58534e-14
1.05031e-14
4.23879e-14
3.59129e-14
1.92765e-14
1.91886e-14
3.67606e-14
4.80657e-14
3.31369e-14
1.66032e-14
3.41933e-14
3.3492e-14
2.80702e-14
2.77917e-14
2.76451e-14
1.49624e-14
5.10499e-14
3.47432e-14
1.70532e-15
3.19598e-14
2.91927e-14
2.82846e-14
3.4541e-14
4.36021e-14
3.17488e-14
2.7077e-14
2.74912e-14
2.55246e-14
2.39784e-14
3.41728e-14
7.86813e-15
2.5945e-14
1.69609e-14
1.07067e-14
3.5046e-15
3.04223e-14
2.09905e-14
2.18946e-14
2.96374e-14
7.19794e-15
1.47424e-14
1.18673e-14
8.34935e-15
1.53301e-14
-2.00021e-15
2.37648e-14
-1.89786e-15
3.53562e-14
9.75687e-15
1.91608e-14
-2.26301e-15
2.40241e-14
3.07797e-14
1.81729e-14
6.73723e-15
2.99902e-14
1.66243e-14
2.14306e-14
5.08546e-15
1.66414e-14
-1.17889e-14
2.85471e-14
1.33917e-14
2.05049e-14
-3.15434e-15
8.43884e-15
2.19554e-14
1.74341e-14
2.2169e-15
9.98798e-15
1.4739e-14
8.57179e-15
3.77789e-15
2.32499e-14
-3.69353e-15
1.11279e-14
1.35621e-15
4.13046e-16
-1.00709e-14
-2.39605e-15
1.58455e-14
1.0427e-14
5.56247e-15
-6.64491e-16
2.43977e-14
1.53003e-14
2.41473e-15
1.64105e-14
-5.64394e-16
2.3726e-14
1.79918e-14
1.12737e-14
2.0618e-14
6.53556e-16
8.75628e-15
-1.487e-15
-5.75704e-16
2.73909e-15
-3.14525e-15
1.94927e-15
1.58488e-14
-3.17529e-15
-6.34851e-15
9.19706e-15
4.6692e-15
-6.84831e-15
7.18071e-15
1.69136e-14
1.39185e-14
5.5563e-15
2.87089e-14
1.51045e-14
3.06486e-15
7.5952e-15
5.91902e-15
2.18959e-15
1.97179e-14
1.25713e-16
1.84304e-14
7.09251e-15
5.06285e-15
1.0744e-14
-9.77323e-15
1.88887e-14
-1.37261e-14
1.7939e-15
6.73408e-15
-1.35292e-19
2.50777e-15
1.17539e-14
1.48964e-15
-9.21488e-15
7.04051e-15
1.55202e-15
-2.41209e-15
3.0903e-15
-1.70206e-15
1.71102e-14
-2.87607e-15
6.1218e-15
5.89774e-15
2.90199e-15
-1.61935e-14
-7.15281e-15
-9.5988e-15
-1.89679e-14
-1.40264e-14
-5.64557e-16
-1.21287e-14
-7.26221e-15
-4.68079e-15
-1.98265e-14
2.20013e-15
-1.04743e-14
-1.20507e-14
-8.48109e-15
-1.64225e-14
-2.1628e-15
-1.70654e-14
-9.83937e-15
-1.60118e-14
-7.44607e-15
-1.22981e-14
-8.28372e-15
-1.45163e-14
-4.74448e-15
-1.48342e-14
-5.79226e-15
-9.53444e-15
-1.23295e-14
-4.82952e-15
3.02767e-15
-6.87938e-15
-8.59136e-15
-6.92208e-15
-1.0809e-14
-1.14984e-14
-4.31882e-15
-3.29339e-15
3.31852e-15
-1.13846e-14
6.29817e-15
4.61128e-15
3.65288e-15
-3.70829e-16
1.2339e-14
-1.12415e-14
-4.57869e-15
2.13768e-15
-7.09375e-15
1.39246e-15
-3.44941e-15
3.44566e-15
3.37954e-15
-1.50083e-15
1.52577e-14
3.34178e-15
-3.50234e-16
-1.75568e-15
4.3103e-15
1.15383e-14
8.40059e-15
5.87735e-16
3.51302e-15
-9.31766e-15
-3.35257e-15
7.29456e-15
-9.38793e-15
4.3702e-15
-5.77232e-15
-1.59125e-15
-8.66479e-15
2.02319e-15
-6.93394e-15
-1.56412e-15
-6.95414e-15
-3.45825e-15
-1.31227e-14
6.40498e-15
-5.79558e-15
4.25445e-15
-5.1098e-16
7.2028e-15
3.46494e-15
1.29885e-14
8.83389e-15
-7.52641e-15
8.62831e-15
1.56169e-14
8.76788e-15
1.5444e-15
1.27337e-14
1.39351e-14
1.31787e-14
9.14147e-15
1.47385e-14
1.38158e-14
1.57201e-14
6.90863e-15
2.24923e-14
9.14524e-15
1.92981e-14
1.38873e-14
1.67614e-14
5.76315e-15
1.46198e-14
5.02946e-15
-6.57899e-16
2.51324e-15
-7.88915e-16
7.98123e-16
4.01254e-15
2.32605e-15
6.62696e-15
6.49866e-15
1.84213e-14
1.01139e-14
1.53553e-14
1.80827e-14
1.82438e-14
1.78853e-14
1.96491e-14
2.27769e-14
2.03532e-14
2.16051e-14
1.85334e-14
3.22502e-14
2.47929e-14
2.75792e-14
2.29605e-14
2.18238e-14
3.42491e-14
2.69465e-14
2.60233e-14
3.47606e-14
2.77938e-14
3.06325e-14
3.23903e-14
3.41558e-14
2.80643e-14
2.57463e-14
3.49747e-14
2.98161e-14
3.16106e-14
2.48676e-14
1.89257e-14
2.20705e-14
2.78673e-14
2.22177e-14
1.80878e-14
1.96173e-14
1.38255e-14
1.91162e-14
1.28401e-14
2.11908e-14
1.48227e-14
1.4554e-14
1.68326e-14
1.37073e-14
1.54934e-14
1.42298e-14
1.50086e-14
1.04438e-14
1.1726e-14
1.22066e-14
2.10801e-14
1.78972e-14
1.72455e-14
1.62558e-14
1.50506e-14
9.23226e-15
2.01042e-14
9.20453e-15
1.91448e-14
9.82924e-15
1.43637e-14
1.72535e-14
1.79553e-14
1.40154e-14
1.06476e-14
1.34519e-14
1.58236e-14
1.87685e-14
2.11516e-14
1.52833e-14
1.34096e-14
7.51098e-15
1.87501e-14
1.30126e-14
2.01369e-14
1.64588e-14
1.9694e-14
1.90064e-14
1.91926e-14
1.33523e-14
2.58689e-14
2.29403e-14
3.20703e-14
2.39564e-14
2.75597e-14
2.50821e-14
3.47364e-14
2.4648e-14
3.08029e-14
2.88043e-14
3.03883e-14
2.87539e-14
3.075e-14
2.53719e-14
2.95378e-14
2.21547e-14
2.35009e-14
3.30627e-14
2.83104e-14
2.73238e-14
2.71e-14
3.06318e-14
2.75582e-14
2.8349e-14
3.01697e-14
3.57376e-14
3.64837e-14
4.38781e-14
4.55327e-14
4.27773e-14
5.27736e-14
4.8068e-14
4.30593e-14
4.64284e-14
5.23884e-14
4.66189e-14
4.63243e-14
4.30311e-14
4.8274e-14
4.74991e-14
4.74102e-14
5.66989e-14
4.82207e-14
4.02877e-14
4.668e-14
4.5977e-14
4.85607e-14
4.63734e-14
3.99697e-14
4.08662e-14
4.42791e-14
3.96863e-14
4.09549e-14
3.58021e-14
3.90826e-14
3.18579e-14
3.11374e-14
2.74917e-14
3.16791e-14
2.8522e-14
3.42297e-14
2.76207e-14
3.32999e-14
3.41943e-14
3.29259e-14
3.66725e-14
3.09447e-14
3.29653e-14
4.60255e-14
4.64757e-14
4.21995e-14
4.83577e-14
4.69152e-14
5.22957e-14
5.60462e-14
5.33746e-14
5.44255e-14
5.10824e-14
5.60664e-14
4.98457e-14
4.77501e-14
5.13761e-14
4.73783e-14
5.08239e-14
4.45684e-14
5.0834e-14
5.21729e-14
4.97431e-14
5.01149e-14
5.2239e-14
4.96592e-14
5.23737e-14
4.8125e-14
5.18029e-14
4.80689e-14
4.75944e-14
5.74918e-14
5.29147e-14
5.47392e-14
5.53016e-14
5.20201e-14
5.10164e-14
4.96279e-14
4.83614e-14
4.78497e-14
5.39857e-14
4.94428e-14
5.11138e-14
5.36052e-14
5.33937e-14
5.119e-14
5.2333e-14
4.91856e-14
5.18202e-14
5.27033e-14
4.88607e-14
5.64184e-14
4.78834e-14
5.2736e-14
5.7316e-14
5.29023e-14
5.44402e-14
5.60995e-14
5.67601e-14
5.01614e-14
4.76778e-14
4.54214e-14
4.28008e-14
3.93002e-14
4.57708e-14
4.0808e-14
4.11146e-14
4.43013e-14
3.26557e-14
3.87658e-14
3.52534e-14
3.12512e-14
3.41943e-14
3.19132e-14
3.47847e-14
3.33383e-14
2.96293e-14
2.78272e-14
3.0774e-14
3.20427e-14
3.57252e-14
3.43555e-14
3.15589e-14
3.38933e-14
2.69582e-14
3.31642e-14
3.04002e-14
3.24321e-14
3.0235e-14
2.98695e-14
2.14576e-14
2.70355e-14
2.08769e-14
2.20879e-14
2.39933e-14
1.73741e-14
1.62765e-14
1.4876e-14
1.69549e-14
1.77902e-14
1.69586e-14
1.31835e-14
1.34043e-14
1.73846e-14
1.60118e-14
2.07299e-14
1.44953e-14
2.3888e-14
2.3374e-14
2.34153e-14
1.95813e-14
2.19892e-14
2.2958e-14
1.64736e-14
1.84211e-14
1.49824e-14
2.23419e-14
)
;

boundaryField
{
    bottom
    {
        type            calculated;
        value           uniform 0;
    }
    top
    {
        type            calculated;
        value           uniform 1.77784e-14;
    }
    walls
    {
        type            calculated;
        value           uniform 0;
    }
}


// ************************************************************************* //
