/*--------------------------------*- C++ -*----------------------------------*\
| =========                 |                                                 |
| \\      /  F ield         | foam-extend: Open Source CFD                    |
|  \\    /   O peration     | Version:     5.0                                |
|   \\  /    A nd           | Web:         http://www.foam-extend.org         |
|    \\/     M anipulation  |                                                 |
\*---------------------------------------------------------------------------*/
FoamFile
{
    version     2.0;
    format      ascii;
    class       surfaceScalarField;
    location    "10000";
    object      phi.water;
}
// * * * * * * * * * * * * * * * * * * * * * * * * * * * * * * * * * * * * * //

dimensions      [0 3 -1 0 0 0 0];

internalField   nonuniform List<scalar> 
1499
(
-1.60615e-13
9.66866e-14
-1.66272e-13
7.07952e-14
-6.91396e-14
2.80889e-13
-3.51713e-13
2.1645e-13
-9.60957e-14
-2.61695e-13
9.9791e-14
4.65281e-14
-2.35595e-14
-3.82309e-13
-9.74186e-14
4.91515e-14
-1.87842e-13
3.17928e-15
-3.38728e-13
-3.71e-13
-1.83349e-13
-3.49712e-13
-2.68344e-13
-1.87877e-13
-2.14269e-13
-3.74082e-13
-4.45163e-13
-3.01124e-13
-5.33231e-14
-6.50636e-13
-7.09812e-13
-4.24412e-13
-3.57424e-13
-6.14971e-13
-6.77895e-13
-5.62909e-13
-4.58992e-13
-1.01994e-12
-6.15774e-13
-6.916e-13
-1.11724e-12
-5.00315e-13
-9.10306e-13
-8.07831e-13
-1.14888e-12
-7.89446e-13
-8.61503e-13
-1.13997e-12
-1.2637e-12
-1.11092e-12
-8.55003e-13
-1.46412e-12
-1.32251e-12
-1.23246e-12
-1.45989e-12
-1.40783e-12
-1.48408e-12
-1.40648e-12
-1.75669e-12
-1.29331e-12
-1.61924e-12
-1.97664e-12
-1.75442e-12
-1.6947e-12
-1.98179e-12
-2.00362e-12
-1.79246e-12
-2.24487e-12
-2.03624e-12
-2.22448e-12
-2.13369e-12
-2.24709e-12
-2.36295e-12
-2.51304e-12
-2.39535e-12
-2.67381e-12
-2.67117e-12
-2.48151e-12
-2.92318e-12
-2.92354e-12
-2.66173e-12
-3.02951e-12
-3.11529e-12
-2.77895e-12
-3.38825e-12
-3.00812e-12
-3.69589e-12
-3.20695e-12
-3.61692e-12
-3.29025e-12
-3.67109e-12
-3.84841e-12
-3.60438e-12
-4.14449e-12
-3.7764e-12
-4.16365e-12
-4.00096e-12
-4.34586e-12
-3.79473e-12
-4.50472e-12
-4.6899e-12
-4.45811e-12
-4.5375e-12
-4.65737e-12
-4.74e-12
-4.98263e-12
-5.17878e-12
-4.56235e-12
-5.43686e-12
-5.08973e-12
-5.56955e-12
-5.27342e-12
-5.55353e-12
-5.96307e-12
-5.27269e-12
-5.9552e-12
-5.97323e-12
-6.07116e-12
-6.20422e-12
-6.14703e-12
-6.09482e-12
-6.46866e-12
-6.80569e-12
-6.43862e-12
-7.05026e-12
-6.60587e-12
-7.10935e-12
-6.78127e-12
-7.43983e-12
-7.2386e-12
-7.38309e-12
-7.49655e-12
-7.76839e-12
-7.44608e-12
-7.80052e-12
-8.07275e-12
-8.14779e-12
-8.10833e-12
-8.3878e-12
-8.53879e-12
-8.27263e-12
-8.7867e-12
-8.55506e-12
-9.46115e-12
-8.41402e-12
-9.27826e-12
-9.41002e-12
-9.37893e-12
-9.46748e-12
-9.63057e-12
-9.78394e-12
-9.76422e-12
-1.00315e-11
-1.04559e-11
-1.01226e-11
-1.06243e-11
-1.02738e-11
-1.08028e-11
-1.06888e-11
-1.09583e-11
-1.13386e-11
-1.09863e-11
-1.12652e-11
-1.17242e-11
-1.16116e-11
-1.16519e-11
-1.19645e-11
-1.20076e-11
-1.22089e-11
-1.26772e-11
-1.23324e-11
-1.24571e-11
-1.30085e-11
-1.28206e-11
-1.27969e-11
-1.32735e-11
-1.36336e-11
-1.31443e-11
-1.38526e-11
-1.38327e-11
-1.41936e-11
-1.35875e-11
-1.42675e-11
-1.44085e-11
-1.45787e-11
-1.50286e-11
-1.48517e-11
-1.52597e-11
-1.47749e-11
-1.54671e-11
-1.54879e-11
-1.56286e-11
-1.60844e-11
-1.59593e-11
-1.60923e-11
-1.64036e-11
-1.64261e-11
-1.65024e-11
-1.67244e-11
-1.70742e-11
-1.70615e-11
-1.77685e-11
-1.73184e-11
-1.7639e-11
-1.80197e-11
-1.79779e-11
-1.81356e-11
-1.83687e-11
-1.83294e-11
-1.87268e-11
-1.86488e-11
-1.93162e-11
-1.92455e-11
-1.94779e-11
-1.976e-11
-1.9451e-11
-1.98568e-11
-2.05267e-11
-2.05287e-11
-2.03095e-11
-2.08229e-11
-2.06036e-11
-2.12389e-11
-2.11424e-11
-2.14624e-11
-2.14797e-11
-2.19299e-11
-2.21795e-11
-2.21103e-11
-2.21781e-11
-2.29803e-11
-2.25963e-11
-2.30623e-11
-2.3e-11
-2.32552e-11
-2.36371e-11
-2.39713e-11
-2.3762e-11
-2.42992e-11
-2.42421e-11
-2.4677e-11
-2.47586e-11
-2.49444e-11
-2.53697e-11
-2.46086e-11
-4.84019e-12
1.45705e-11
3.46142e-11
5.49392e-11
7.46745e-11
9.55894e-11
1.15412e-10
1.3651e-10
1.56785e-10
1.77734e-10
1.99064e-10
2.19984e-10
2.41103e-10
2.6253e-10
2.83596e-10
3.05142e-10
3.28383e-10
3.4873e-10
3.71318e-10
3.92866e-10
4.16184e-10
4.38163e-10
4.60177e-10
4.83866e-10
5.05211e-10
5.29177e-10
5.51523e-10
5.75441e-10
5.97402e-10
6.2232e-10
6.45324e-10
6.69042e-10
6.91973e-10
7.17247e-10
7.40562e-10
7.65897e-10
7.89977e-10
8.14116e-10
8.36515e-10
8.64833e-10
8.8688e-10
9.13514e-10
9.38432e-10
9.63367e-10
9.8939e-10
1.01427e-09
1.03828e-09
1.06692e-09
1.09273e-09
1.11742e-09
1.14154e-09
1.17135e-09
1.19859e-09
1.22068e-09
1.25052e-09
1.27572e-09
1.30428e-09
1.32992e-09
1.35742e-09
1.38447e-09
1.41607e-09
1.44063e-09
1.46633e-09
1.49451e-09
1.52341e-09
1.55615e-09
1.57769e-09
1.60891e-09
1.63751e-09
1.66752e-09
1.6946e-09
1.72277e-09
1.75293e-09
1.7807e-09
1.81531e-09
1.84141e-09
1.86546e-09
1.90296e-09
1.93083e-09
1.95984e-09
1.99156e-09
2.0171e-09
2.05171e-09
2.08539e-09
2.10813e-09
2.14648e-09
2.17142e-09
2.2082e-09
2.23475e-09
2.26765e-09
2.30064e-09
2.33045e-09
2.36307e-09
2.39644e-09
2.42896e-09
2.45728e-09
2.48942e-09
2.52478e-09
2.55685e-09
2.5889e-09
2.62233e-09
2.65547e-09
2.68828e-09
2.72116e-09
2.75664e-09
2.7861e-09
2.8224e-09
2.8584e-09
2.89035e-09
2.92348e-09
2.9587e-09
2.99288e-09
3.03015e-09
3.06147e-09
3.09738e-09
3.13223e-09
3.16734e-09
3.19935e-09
3.23865e-09
3.27194e-09
3.31403e-09
3.34125e-09
3.38213e-09
3.41996e-09
3.44553e-09
3.49938e-09
3.52249e-09
3.56529e-09
3.59733e-09
3.63721e-09
3.67417e-09
3.70597e-09
3.75284e-09
3.78402e-09
3.82716e-09
3.85796e-09
3.90122e-09
3.93586e-09
3.97684e-09
4.01753e-09
4.05314e-09
4.09274e-09
4.12918e-09
4.17344e-09
4.20657e-09
4.24786e-09
4.28991e-09
4.32364e-09
4.36793e-09
4.40906e-09
4.44341e-09
4.48411e-09
4.5325e-09
4.56733e-09
4.60465e-09
4.65371e-09
4.68718e-09
4.73088e-09
4.77936e-09
4.81231e-09
4.85116e-09
4.90072e-09
4.93897e-09
4.98166e-09
5.02054e-09
5.06965e-09
5.10509e-09
5.1515e-09
5.19113e-09
5.24167e-09
5.27649e-09
5.32515e-09
5.36914e-09
5.40062e-09
5.46002e-09
5.49761e-09
5.54037e-09
5.58364e-09
5.62944e-09
5.67629e-09
5.71542e-09
5.76795e-09
5.80745e-09
5.84909e-09
5.90029e-09
5.94699e-09
5.9934e-09
6.03716e-09
6.08064e-09
6.12728e-09
6.1742e-09
6.21722e-09
6.26592e-09
6.31626e-09
6.36379e-09
6.40413e-09
6.45806e-09
6.50158e-09
6.54968e-09
6.59468e-09
6.6458e-09
6.6901e-09
6.74453e-09
6.79273e-09
6.83407e-09
6.89063e-09
6.93611e-09
6.9848e-09
7.03533e-09
7.08176e-09
7.13352e-09
7.18534e-09
7.22867e-09
7.28277e-09
7.33712e-09
7.37857e-09
7.43762e-09
7.47862e-09
7.53879e-09
7.58676e-09
7.63526e-09
7.6876e-09
7.74263e-09
7.79003e-09
7.84609e-09
7.89784e-09
7.94992e-09
7.99762e-09
8.05084e-09
8.10873e-09
8.1604e-09
8.20973e-09
8.26512e-09
8.3225e-09
8.37031e-09
8.42638e-09
8.48223e-09
8.53195e-09
8.59237e-09
8.64192e-09
8.69609e-09
8.75585e-09
8.80736e-09
8.86281e-09
8.9202e-09
8.97622e-09
9.02811e-09
9.08581e-09
9.14269e-09
9.20103e-09
9.25367e-09
9.31195e-09
9.37007e-09
9.42393e-09
9.48329e-09
9.54197e-09
9.59821e-09
9.65644e-09
9.70984e-09
9.77674e-09
9.83023e-09
9.88828e-09
9.94986e-09
1.00046e-08
1.00681e-08
1.01229e-08
1.01888e-08
1.02388e-08
1.03065e-08
1.03662e-08
1.04255e-08
1.04848e-08
1.05421e-08
1.06101e-08
1.06709e-08
1.07273e-08
1.07884e-08
1.08511e-08
1.09152e-08
1.09792e-08
1.10381e-08
1.1096e-08
1.11666e-08
1.12257e-08
1.12891e-08
1.1348e-08
1.14216e-08
1.14767e-08
1.15441e-08
1.16059e-08
1.16722e-08
1.17347e-08
1.17952e-08
1.18697e-08
1.19271e-08
1.1995e-08
1.20631e-08
1.21265e-08
1.21898e-08
1.22577e-08
1.23234e-08
1.23916e-08
1.24604e-08
1.25256e-08
1.259e-08
1.26609e-08
1.27261e-08
1.27901e-08
1.28617e-08
1.29316e-08
1.29981e-08
1.30645e-08
1.31353e-08
1.32031e-08
1.32757e-08
1.33413e-08
1.34121e-08
1.34832e-08
1.35487e-08
1.36244e-08
1.36907e-08
1.37637e-08
1.38315e-08
1.3908e-08
1.3976e-08
1.40472e-08
1.412e-08
1.4191e-08
1.42675e-08
1.43323e-08
1.4408e-08
1.44833e-08
1.45524e-08
1.46333e-08
1.46987e-08
1.4773e-08
1.48489e-08
1.4924e-08
1.49973e-08
1.50717e-08
1.51478e-08
1.52203e-08
1.53019e-08
1.53714e-08
1.54457e-08
1.55257e-08
1.55992e-08
1.56798e-08
1.57524e-08
1.58304e-08
1.59033e-08
1.59874e-08
1.60678e-08
1.61346e-08
1.62202e-08
1.6296e-08
1.6374e-08
1.64559e-08
1.6529e-08
1.66142e-08
1.66873e-08
1.67734e-08
1.68484e-08
1.69329e-08
1.70111e-08
1.70913e-08
1.71733e-08
1.72508e-08
1.73357e-08
1.74147e-08
1.74992e-08
1.75795e-08
1.76631e-08
1.77452e-08
1.78261e-08
1.79133e-08
1.79918e-08
1.80786e-08
1.81625e-08
1.82414e-08
1.83287e-08
1.84135e-08
1.84991e-08
1.85847e-08
1.86638e-08
1.87526e-08
1.88426e-08
1.89267e-08
1.9006e-08
1.90999e-08
1.91803e-08
1.92743e-08
1.93586e-08
1.94427e-08
1.95322e-08
1.96218e-08
1.97078e-08
1.97998e-08
1.98867e-08
1.99759e-08
2.00612e-08
2.01549e-08
2.02427e-08
2.03354e-08
2.04231e-08
2.05136e-08
2.06037e-08
2.06959e-08
2.07853e-08
2.08754e-08
2.09761e-08
2.10578e-08
2.11522e-08
2.1248e-08
2.13376e-08
2.14309e-08
2.15243e-08
2.16216e-08
2.17123e-08
2.18067e-08
2.18998e-08
2.19966e-08
2.20897e-08
2.21812e-08
2.22818e-08
2.23762e-08
2.24732e-08
2.25676e-08
2.2663e-08
2.27625e-08
2.28569e-08
2.29579e-08
2.30502e-08
2.31499e-08
2.32526e-08
2.33441e-08
2.34475e-08
2.3542e-08
2.36436e-08
2.37404e-08
2.38437e-08
2.39429e-08
2.40395e-08
2.41431e-08
2.4244e-08
2.43458e-08
2.44417e-08
2.45477e-08
2.4649e-08
2.475e-08
2.4853e-08
2.49596e-08
2.50559e-08
2.51621e-08
2.5267e-08
2.53685e-08
2.54744e-08
2.55724e-08
2.56844e-08
2.57865e-08
2.58897e-08
2.59988e-08
2.61026e-08
2.62081e-08
2.63161e-08
2.642e-08
2.65289e-08
2.66346e-08
2.67426e-08
2.68485e-08
2.69597e-08
2.70693e-08
2.71724e-08
2.72825e-08
2.73923e-08
2.75045e-08
2.761e-08
2.77228e-08
2.7828e-08
2.79426e-08
2.80513e-08
2.8164e-08
2.8277e-08
2.83853e-08
2.84986e-08
2.8613e-08
2.87221e-08
2.88342e-08
2.8948e-08
2.90643e-08
2.91756e-08
2.92904e-08
2.94018e-08
2.95196e-08
2.96354e-08
2.97476e-08
2.98625e-08
2.99804e-08
3.0096e-08
3.02101e-08
3.03281e-08
3.04436e-08
3.0564e-08
3.06767e-08
3.07996e-08
3.09138e-08
3.10316e-08
3.11518e-08
3.12723e-08
3.13885e-08
3.15115e-08
3.16277e-08
3.17489e-08
3.18689e-08
3.19924e-08
3.21095e-08
3.22334e-08
3.2353e-08
3.2477e-08
3.25968e-08
3.27198e-08
3.28427e-08
3.29677e-08
3.30874e-08
3.32129e-08
3.33354e-08
3.34615e-08
3.3587e-08
3.37116e-08
3.38356e-08
3.39595e-08
3.40864e-08
3.42137e-08
3.43367e-08
3.44674e-08
3.45935e-08
3.47176e-08
3.48474e-08
3.49766e-08
3.50992e-08
3.52343e-08
3.53605e-08
3.54884e-08
3.56208e-08
3.57474e-08
3.58782e-08
3.60075e-08
3.61392e-08
3.62681e-08
3.64029e-08
3.65315e-08
3.66644e-08
3.67967e-08
3.69281e-08
3.70622e-08
3.71927e-08
3.73291e-08
3.74608e-08
3.75962e-08
3.77267e-08
3.78639e-08
3.7999e-08
3.81354e-08
3.8268e-08
3.84059e-08
3.85397e-08
3.8675e-08
3.88145e-08
3.89524e-08
3.90877e-08
3.92258e-08
3.93635e-08
3.95002e-08
3.96427e-08
3.97782e-08
3.99183e-08
4.00554e-08
4.01999e-08
4.03356e-08
4.04783e-08
4.0618e-08
4.07607e-08
4.08987e-08
4.1044e-08
4.11834e-08
4.13245e-08
4.14691e-08
4.16123e-08
4.17531e-08
4.18978e-08
4.20435e-08
4.21834e-08
4.23317e-08
4.24755e-08
4.262e-08
4.27647e-08
4.2911e-08
4.30561e-08
4.32005e-08
4.33509e-08
4.3497e-08
4.3642e-08
4.37899e-08
4.39395e-08
4.40873e-08
4.42336e-08
4.4382e-08
4.45334e-08
4.46821e-08
4.48328e-08
4.498e-08
4.51323e-08
4.52833e-08
4.54325e-08
4.55838e-08
4.57334e-08
4.58887e-08
4.60411e-08
4.61906e-08
4.63465e-08
4.64963e-08
4.66507e-08
4.6808e-08
4.69573e-08
4.71108e-08
4.72678e-08
4.74225e-08
4.7578e-08
4.7733e-08
4.78867e-08
4.80467e-08
4.81992e-08
4.83593e-08
4.85161e-08
4.86705e-08
4.88319e-08
4.89863e-08
4.91472e-08
4.93049e-08
4.94645e-08
4.96239e-08
4.97805e-08
4.99432e-08
5.01021e-08
5.02638e-08
5.04235e-08
5.05854e-08
5.07452e-08
5.09084e-08
5.10686e-08
5.12325e-08
5.13951e-08
5.15567e-08
5.17199e-08
5.18858e-08
5.20473e-08
5.22117e-08
5.23772e-08
5.25416e-08
5.27072e-08
5.287e-08
5.30364e-08
5.32039e-08
5.33719e-08
5.35354e-08
5.37037e-08
5.38689e-08
5.40416e-08
5.42026e-08
5.43731e-08
5.4543e-08
5.47135e-08
5.48774e-08
5.50484e-08
5.52196e-08
5.53895e-08
5.55567e-08
5.57281e-08
5.5904e-08
5.60741e-08
5.62409e-08
5.64125e-08
5.6591e-08
5.67563e-08
5.6931e-08
5.71038e-08
5.72803e-08
5.74497e-08
5.76254e-08
5.77996e-08
5.79735e-08
5.81494e-08
5.83222e-08
5.85014e-08
5.86761e-08
5.88477e-08
5.90277e-08
5.92043e-08
5.9382e-08
5.95568e-08
5.97349e-08
5.99176e-08
6.00884e-08
6.02675e-08
6.04486e-08
6.06267e-08
6.08081e-08
6.09884e-08
6.11634e-08
6.13454e-08
6.15252e-08
6.17086e-08
6.18871e-08
6.20727e-08
6.22484e-08
6.2433e-08
6.26157e-08
6.27959e-08
6.29817e-08
6.31639e-08
6.33437e-08
6.35321e-08
6.37174e-08
6.38974e-08
6.40826e-08
6.42689e-08
6.44573e-08
6.46381e-08
6.4822e-08
6.50116e-08
6.51967e-08
6.53806e-08
6.55709e-08
6.57582e-08
6.59441e-08
6.61339e-08
6.63193e-08
6.65099e-08
6.66948e-08
6.68886e-08
6.70769e-08
6.72633e-08
6.74527e-08
6.76457e-08
6.7838e-08
6.80256e-08
6.82139e-08
6.84083e-08
6.85995e-08
6.87909e-08
6.89827e-08
6.9175e-08
6.93654e-08
6.95642e-08
6.97552e-08
6.99431e-08
7.01422e-08
7.0335e-08
7.05289e-08
7.07237e-08
7.09202e-08
7.11135e-08
7.13083e-08
7.15041e-08
7.16997e-08
7.18964e-08
7.20951e-08
7.22874e-08
7.24881e-08
7.26839e-08
7.28807e-08
7.3077e-08
7.32799e-08
7.34761e-08
7.36749e-08
7.38757e-08
7.40713e-08
7.42724e-08
7.44724e-08
7.46716e-08
7.48727e-08
7.50703e-08
7.52758e-08
7.54715e-08
7.56799e-08
7.58761e-08
7.60805e-08
7.62783e-08
7.64853e-08
7.66888e-08
7.68897e-08
7.70905e-08
7.72987e-08
7.75002e-08
7.77053e-08
7.79074e-08
7.81142e-08
7.83129e-08
7.85257e-08
7.87277e-08
7.89351e-08
7.91366e-08
7.93444e-08
7.95533e-08
7.97587e-08
7.99638e-08
8.01722e-08
8.03801e-08
8.05868e-08
8.07931e-08
8.1006e-08
8.1209e-08
8.14212e-08
8.16282e-08
8.18375e-08
8.2045e-08
8.22553e-08
8.24683e-08
8.26772e-08
8.28863e-08
8.30954e-08
8.3311e-08
8.35201e-08
8.37287e-08
8.39432e-08
8.41516e-08
8.4368e-08
8.4579e-08
8.47899e-08
8.50058e-08
8.52145e-08
8.54307e-08
8.56429e-08
8.58563e-08
8.6071e-08
8.62842e-08
8.64988e-08
8.6717e-08
8.6928e-08
8.71423e-08
8.73606e-08
8.75754e-08
8.77885e-08
8.80066e-08
8.82237e-08
8.84401e-08
8.86541e-08
8.88765e-08
8.90912e-08
8.93061e-08
8.95252e-08
8.97434e-08
8.99593e-08
9.01819e-08
9.03958e-08
9.06185e-08
9.08352e-08
9.10548e-08
9.12754e-08
9.14902e-08
9.17168e-08
9.19299e-08
9.21534e-08
9.23748e-08
9.25936e-08
9.28153e-08
9.30386e-08
9.32574e-08
9.34767e-08
9.37024e-08
9.39229e-08
9.41439e-08
9.43669e-08
9.45878e-08
9.48154e-08
9.50333e-08
9.52585e-08
9.54819e-08
9.57064e-08
9.59262e-08
9.61526e-08
9.63766e-08
9.65985e-08
9.68242e-08
9.70511e-08
9.72728e-08
9.74991e-08
9.77261e-08
9.79467e-08
9.81778e-08
9.84004e-08
9.86258e-08
9.88527e-08
9.90778e-08
9.93072e-08
9.95305e-08
9.97593e-08
9.99845e-08
1.00213e-07
1.00439e-07
1.00668e-07
1.00893e-07
1.01124e-07
1.01348e-07
1.01579e-07
1.01806e-07
1.02033e-07
1.02263e-07
1.02494e-07
1.02721e-07
1.0295e-07
1.03179e-07
1.03407e-07
1.03636e-07
1.03868e-07
1.04097e-07
1.04328e-07
1.04554e-07
1.04788e-07
1.05017e-07
1.05247e-07
1.05477e-07
1.05711e-07
1.05936e-07
1.06169e-07
1.06402e-07
1.0663e-07
1.06863e-07
1.07093e-07
1.07326e-07
1.07557e-07
1.07787e-07
1.08023e-07
1.08252e-07
1.08483e-07
1.08715e-07
1.08948e-07
1.09181e-07
1.09414e-07
1.09644e-07
1.09878e-07
1.10108e-07
1.10341e-07
1.10577e-07
1.10805e-07
1.11042e-07
1.11272e-07
1.11507e-07
1.11737e-07
1.11974e-07
1.12205e-07
1.12439e-07
1.12671e-07
1.12906e-07
1.13135e-07
1.13373e-07
1.13603e-07
1.13838e-07
1.1407e-07
1.14305e-07
1.14536e-07
1.14773e-07
1.15006e-07
1.15234e-07
1.15472e-07
1.15706e-07
1.15938e-07
1.16169e-07
1.16405e-07
1.16637e-07
1.16871e-07
1.17103e-07
1.17338e-07
1.17571e-07
1.17804e-07
1.18034e-07
1.18272e-07
1.185e-07
1.18736e-07
1.18967e-07
1.19201e-07
1.19431e-07
1.19666e-07
1.19897e-07
1.20128e-07
1.20361e-07
1.20593e-07
1.20825e-07
1.21057e-07
1.21287e-07
1.21519e-07
1.2175e-07
1.21984e-07
1.22212e-07
1.22443e-07
1.22673e-07
1.22904e-07
1.23134e-07
1.23363e-07
1.23593e-07
1.23823e-07
1.24052e-07
1.24279e-07
1.24511e-07
1.24737e-07
1.24965e-07
1.25193e-07
1.25418e-07
1.25649e-07
1.25874e-07
1.26099e-07
1.26328e-07
1.26551e-07
1.26777e-07
1.27002e-07
1.27228e-07
1.27451e-07
1.27673e-07
1.27899e-07
1.2812e-07
1.28344e-07
1.28565e-07
1.28785e-07
1.29006e-07
1.29228e-07
1.29447e-07
1.29665e-07
1.29885e-07
1.30102e-07
1.30321e-07
1.30535e-07
1.30754e-07
1.30968e-07
1.31182e-07
1.31398e-07
1.3161e-07
1.31823e-07
1.32035e-07
1.32246e-07
1.32455e-07
1.32665e-07
1.32873e-07
1.33082e-07
1.33289e-07
1.33495e-07
1.33699e-07
1.33903e-07
1.34105e-07
1.3431e-07
1.34507e-07
1.34709e-07
1.34907e-07
1.35104e-07
1.35301e-07
1.35497e-07
1.35691e-07
1.35882e-07
1.36074e-07
1.36264e-07
1.36454e-07
1.36641e-07
1.36826e-07
1.37011e-07
1.37191e-07
1.37376e-07
1.37554e-07
1.37733e-07
1.37908e-07
1.38084e-07
1.38257e-07
1.38428e-07
1.38595e-07
1.38766e-07
1.38929e-07
1.39095e-07
1.39254e-07
1.39414e-07
1.3957e-07
1.39728e-07
1.39877e-07
1.4003e-07
1.40177e-07
1.40323e-07
1.40466e-07
1.40607e-07
1.40744e-07
1.4088e-07
1.41011e-07
1.4114e-07
1.4127e-07
1.41392e-07
1.41512e-07
1.4163e-07
1.41745e-07
1.41855e-07
1.41963e-07
1.42067e-07
1.42169e-07
1.42265e-07
1.42359e-07
1.42449e-07
1.42533e-07
1.42617e-07
1.42694e-07
1.42766e-07
1.42835e-07
1.42902e-07
1.42961e-07
1.43017e-07
1.43066e-07
1.43113e-07
1.43154e-07
1.43188e-07
1.43222e-07
1.43247e-07
1.43263e-07
1.43281e-07
1.43288e-07
1.43291e-07
1.43288e-07
1.43276e-07
1.43261e-07
1.43239e-07
1.43209e-07
1.43173e-07
1.43129e-07
1.4308e-07
1.43021e-07
1.42957e-07
1.42882e-07
1.42803e-07
1.42713e-07
1.42618e-07
1.4251e-07
1.42396e-07
1.42274e-07
1.42141e-07
1.42001e-07
1.41847e-07
1.41686e-07
1.41517e-07
1.41337e-07
1.41143e-07
1.40942e-07
1.40728e-07
1.40504e-07
1.40269e-07
1.4002e-07
1.39761e-07
1.39488e-07
1.39206e-07
1.38906e-07
1.38596e-07
1.38273e-07
1.37934e-07
1.37585e-07
1.37215e-07
1.36837e-07
1.36441e-07
1.36029e-07
1.35603e-07
1.3516e-07
1.34701e-07
1.34227e-07
1.33734e-07
1.33224e-07
1.32696e-07
1.3215e-07
1.31588e-07
1.31004e-07
1.30402e-07
1.29781e-07
1.29139e-07
1.28479e-07
1.27796e-07
1.27092e-07
1.26367e-07
1.25622e-07
1.24852e-07
1.24061e-07
1.23247e-07
1.22411e-07
1.21549e-07
1.20663e-07
1.19753e-07
1.18819e-07
1.1786e-07
1.16873e-07
1.15863e-07
1.14823e-07
1.1376e-07
1.1267e-07
1.1155e-07
1.10404e-07
1.0923e-07
1.08028e-07
1.06796e-07
1.05535e-07
1.04246e-07
1.02928e-07
1.01579e-07
1.00202e-07
9.8793e-08
9.73555e-08
9.58878e-08
9.43862e-08
9.28578e-08
9.12973e-08
8.97045e-08
8.8083e-08
8.64293e-08
8.47456e-08
8.30304e-08
8.12838e-08
7.95064e-08
7.77e-08
7.58621e-08
7.39934e-08
7.20962e-08
7.01671e-08
6.82116e-08
6.62222e-08
6.42081e-08
6.21638e-08
6.00921e-08
5.79925e-08
5.58666e-08
5.37124e-08
5.15351e-08
4.93294e-08
4.7102e-08
4.48503e-08
4.25738e-08
4.02762e-08
3.79569e-08
3.56168e-08
3.32576e-08
3.08789e-08
2.84823e-08
2.60681e-08
2.36402e-08
2.1195e-08
1.87386e-08
1.62659e-08
1.3785e-08
1.12917e-08
8.79005e-09
6.27925e-09
3.76286e-09
1.24057e-09
-1.28797e-09
-3.81817e-09
-6.35188e-09
-8.88386e-09
)
;

boundaryField
{
    bottom
    {
        type            fixedValue;
        value           uniform 0;
    }
    top
    {
        type            calculated;
        value           uniform -1.14179e-08;
    }
    walls
    {
        type            fixedValue;
        value           uniform 0;
    }
}


// ************************************************************************* //
