/*--------------------------------*- C++ -*----------------------------------*\
| =========                 |                                                 |
| \\      /  F ield         | foam-extend: Open Source CFD                    |
|  \\    /   O peration     | Version:     5.0                                |
|   \\  /    A nd           | Web:         http://www.foam-extend.org         |
|    \\/     M anipulation  |                                                 |
\*---------------------------------------------------------------------------*/
FoamFile
{
    version     2.0;
    format      ascii;
    class       surfaceScalarField;
    location    "10000";
    object      phi.gas;
}
// * * * * * * * * * * * * * * * * * * * * * * * * * * * * * * * * * * * * * //

dimensions      [0 3 -1 0 0 0 0];

internalField   nonuniform List<scalar> 
1499
(
1.66236e-10
4.94975e-10
1.14179e-09
1.6279e-09
2.03063e-09
2.40968e-09
2.77717e-09
3.13835e-09
3.49571e-09
3.85055e-09
4.20357e-09
4.55521e-09
4.90575e-09
5.25539e-09
5.60427e-09
5.95249e-09
6.30014e-09
6.64728e-09
6.99397e-09
7.34026e-09
7.68617e-09
8.03175e-09
8.37703e-09
8.72202e-09
9.06676e-09
9.41125e-09
9.75552e-09
1.00996e-08
1.04435e-08
1.07872e-08
1.11307e-08
1.1474e-08
1.18173e-08
1.21603e-08
1.25033e-08
1.28461e-08
1.31888e-08
1.35314e-08
1.38738e-08
1.42162e-08
1.45585e-08
1.49007e-08
1.52428e-08
1.55848e-08
1.59267e-08
1.62686e-08
1.66104e-08
1.69521e-08
1.72937e-08
1.76353e-08
1.79768e-08
1.83183e-08
1.86597e-08
1.9001e-08
1.93423e-08
1.96835e-08
2.00247e-08
2.03658e-08
2.07069e-08
2.1048e-08
2.1389e-08
2.17299e-08
2.20708e-08
2.24117e-08
2.27525e-08
2.30933e-08
2.34341e-08
2.37748e-08
2.41155e-08
2.44562e-08
2.47968e-08
2.51374e-08
2.5478e-08
2.58185e-08
2.6159e-08
2.64995e-08
2.68399e-08
2.71803e-08
2.75207e-08
2.78611e-08
2.82014e-08
2.85417e-08
2.8882e-08
2.92223e-08
2.95626e-08
2.99028e-08
3.0243e-08
3.05832e-08
3.09233e-08
3.12635e-08
3.16036e-08
3.19437e-08
3.22838e-08
3.26238e-08
3.29639e-08
3.33039e-08
3.36439e-08
3.39839e-08
3.43239e-08
3.46639e-08
3.50038e-08
3.53437e-08
3.56836e-08
3.60235e-08
3.63634e-08
3.67033e-08
3.70431e-08
3.7383e-08
3.77228e-08
3.80626e-08
3.84024e-08
3.87422e-08
3.9082e-08
3.94217e-08
3.97615e-08
4.01012e-08
4.04409e-08
4.07807e-08
4.11204e-08
4.14601e-08
4.17997e-08
4.21394e-08
4.2479e-08
4.28187e-08
4.31583e-08
4.3498e-08
4.38376e-08
4.41772e-08
4.45168e-08
4.48563e-08
4.51959e-08
4.55355e-08
4.5875e-08
4.62146e-08
4.65541e-08
4.68937e-08
4.72332e-08
4.75727e-08
4.79122e-08
4.82517e-08
4.85912e-08
4.89306e-08
4.92701e-08
4.96096e-08
4.9949e-08
5.02885e-08
5.06279e-08
5.09673e-08
5.13068e-08
5.16462e-08
5.19856e-08
5.2325e-08
5.26644e-08
5.30038e-08
5.33432e-08
5.36825e-08
5.40219e-08
5.43613e-08
5.47006e-08
5.504e-08
5.53793e-08
5.57187e-08
5.6058e-08
5.63973e-08
5.67366e-08
5.70759e-08
5.74152e-08
5.77545e-08
5.80938e-08
5.84331e-08
5.87724e-08
5.91117e-08
5.9451e-08
5.97902e-08
6.01295e-08
6.04687e-08
6.0808e-08
6.11473e-08
6.14865e-08
6.18257e-08
6.2165e-08
6.25042e-08
6.28434e-08
6.31826e-08
6.35218e-08
6.3861e-08
6.42002e-08
6.45394e-08
6.48786e-08
6.52178e-08
6.5557e-08
6.58962e-08
6.62354e-08
6.65745e-08
6.69137e-08
6.72529e-08
6.7592e-08
6.79312e-08
6.82703e-08
6.86095e-08
6.89486e-08
6.92878e-08
6.96269e-08
6.9966e-08
7.03052e-08
7.06443e-08
7.09834e-08
7.13225e-08
7.16616e-08
7.20007e-08
7.23398e-08
7.26789e-08
7.3018e-08
7.33571e-08
7.36962e-08
7.40353e-08
7.43744e-08
7.47135e-08
7.50525e-08
7.53916e-08
7.57307e-08
7.60698e-08
7.64088e-08
7.67479e-08
7.70869e-08
7.7426e-08
7.77651e-08
7.81041e-08
7.84431e-08
7.87822e-08
7.91212e-08
7.94603e-08
7.97993e-08
8.01383e-08
8.04774e-08
8.08164e-08
8.11554e-08
8.14944e-08
8.18334e-08
8.21725e-08
8.25114e-08
8.28475e-08
8.29245e-08
6.51064e-08
5.61611e-09
3.38579e-10
-5.18694e-10
-8.28079e-10
-9.87625e-10
-1.08498e-09
-1.15055e-09
-1.19775e-09
-1.23333e-09
-1.26112e-09
-1.28342e-09
-1.30172e-09
-1.31701e-09
-1.32997e-09
-1.34109e-09
-1.35075e-09
-1.35921e-09
-1.36668e-09
-1.37333e-09
-1.37929e-09
-1.38466e-09
-1.38951e-09
-1.39394e-09
-1.39799e-09
-1.4017e-09
-1.40513e-09
-1.40828e-09
-1.41121e-09
-1.41393e-09
-1.41647e-09
-1.41883e-09
-1.42105e-09
-1.42314e-09
-1.42511e-09
-1.42695e-09
-1.42869e-09
-1.43035e-09
-1.43192e-09
-1.4334e-09
-1.43483e-09
-1.43617e-09
-1.43746e-09
-1.43869e-09
-1.43986e-09
-1.44098e-09
-1.44206e-09
-1.44309e-09
-1.44407e-09
-1.44503e-09
-1.44594e-09
-1.44683e-09
-1.44769e-09
-1.4485e-09
-1.44931e-09
-1.45008e-09
-1.45083e-09
-1.45155e-09
-1.45225e-09
-1.45293e-09
-1.45359e-09
-1.45422e-09
-1.45483e-09
-1.45545e-09
-1.45604e-09
-1.45662e-09
-1.45717e-09
-1.4577e-09
-1.45825e-09
-1.45877e-09
-1.45927e-09
-1.45976e-09
-1.46026e-09
-1.46074e-09
-1.46121e-09
-1.46167e-09
-1.46212e-09
-1.46257e-09
-1.46301e-09
-1.46344e-09
-1.46386e-09
-1.46427e-09
-1.46468e-09
-1.46508e-09
-1.46547e-09
-1.46585e-09
-1.46625e-09
-1.46662e-09
-1.46699e-09
-1.46736e-09
-1.46773e-09
-1.46808e-09
-1.46844e-09
-1.46879e-09
-1.46915e-09
-1.46949e-09
-1.46984e-09
-1.47019e-09
-1.47053e-09
-1.47086e-09
-1.47119e-09
-1.47152e-09
-1.47185e-09
-1.47218e-09
-1.47249e-09
-1.4728e-09
-1.47312e-09
-1.47343e-09
-1.47375e-09
-1.47405e-09
-1.47437e-09
-1.47468e-09
-1.475e-09
-1.4753e-09
-1.4756e-09
-1.47592e-09
-1.47622e-09
-1.47654e-09
-1.47684e-09
-1.47714e-09
-1.47744e-09
-1.47773e-09
-1.47802e-09
-1.47831e-09
-1.4786e-09
-1.47889e-09
-1.4792e-09
-1.47948e-09
-1.47979e-09
-1.48008e-09
-1.48038e-09
-1.48067e-09
-1.48097e-09
-1.48126e-09
-1.48153e-09
-1.48182e-09
-1.48211e-09
-1.48243e-09
-1.4827e-09
-1.48301e-09
-1.4833e-09
-1.4836e-09
-1.48389e-09
-1.4842e-09
-1.48449e-09
-1.48478e-09
-1.48509e-09
-1.4854e-09
-1.4857e-09
-1.48601e-09
-1.48631e-09
-1.4866e-09
-1.48692e-09
-1.48721e-09
-1.4875e-09
-1.48782e-09
-1.48812e-09
-1.4884e-09
-1.48873e-09
-1.48902e-09
-1.48931e-09
-1.48964e-09
-1.48996e-09
-1.49025e-09
-1.49055e-09
-1.49088e-09
-1.4912e-09
-1.49151e-09
-1.49184e-09
-1.49215e-09
-1.49247e-09
-1.49278e-09
-1.49312e-09
-1.49344e-09
-1.49376e-09
-1.4941e-09
-1.4944e-09
-1.49475e-09
-1.49508e-09
-1.49543e-09
-1.49575e-09
-1.49608e-09
-1.49641e-09
-1.49674e-09
-1.49709e-09
-1.49743e-09
-1.49774e-09
-1.49807e-09
-1.49841e-09
-1.49877e-09
-1.49912e-09
-1.49946e-09
-1.49982e-09
-1.50017e-09
-1.50052e-09
-1.50087e-09
-1.50122e-09
-1.50158e-09
-1.50193e-09
-1.50229e-09
-1.50265e-09
-1.50302e-09
-1.50337e-09
-1.50373e-09
-1.50407e-09
-1.50445e-09
-1.50483e-09
-1.50518e-09
-1.50555e-09
-1.50593e-09
-1.50631e-09
-1.50669e-09
-1.50707e-09
-1.50745e-09
-1.50785e-09
-1.50822e-09
-1.50861e-09
-1.50901e-09
-1.50938e-09
-1.50979e-09
-1.51017e-09
-1.51057e-09
-1.51097e-09
-1.51136e-09
-1.51174e-09
-1.51215e-09
-1.51254e-09
-1.51296e-09
-1.51337e-09
-1.51379e-09
-1.51419e-09
-1.51458e-09
-1.51499e-09
-1.51541e-09
-1.5158e-09
-1.5162e-09
-1.51662e-09
-1.51704e-09
-1.51744e-09
-1.51786e-09
-1.51828e-09
-1.51871e-09
-1.51913e-09
-1.51956e-09
-1.51998e-09
-1.52041e-09
-1.52085e-09
-1.52127e-09
-1.52172e-09
-1.52216e-09
-1.52259e-09
-1.52303e-09
-1.52349e-09
-1.52393e-09
-1.52437e-09
-1.52482e-09
-1.52526e-09
-1.52571e-09
-1.52617e-09
-1.52662e-09
-1.52708e-09
-1.52752e-09
-1.528e-09
-1.52845e-09
-1.52892e-09
-1.5294e-09
-1.52985e-09
-1.53032e-09
-1.53077e-09
-1.53127e-09
-1.53171e-09
-1.53219e-09
-1.53266e-09
-1.53314e-09
-1.53362e-09
-1.53409e-09
-1.53457e-09
-1.53507e-09
-1.53555e-09
-1.53604e-09
-1.5365e-09
-1.537e-09
-1.5375e-09
-1.538e-09
-1.53847e-09
-1.53898e-09
-1.53947e-09
-1.53997e-09
-1.54045e-09
-1.54098e-09
-1.54148e-09
-1.54199e-09
-1.5425e-09
-1.54302e-09
-1.54353e-09
-1.544e-09
-1.54453e-09
-1.54503e-09
-1.54553e-09
-1.54604e-09
-1.54657e-09
-1.54708e-09
-1.54759e-09
-1.54811e-09
-1.54861e-09
-1.54914e-09
-1.54967e-09
-1.5502e-09
-1.55074e-09
-1.55129e-09
-1.55181e-09
-1.55235e-09
-1.5529e-09
-1.55344e-09
-1.55397e-09
-1.55452e-09
-1.55507e-09
-1.55563e-09
-1.55618e-09
-1.55671e-09
-1.55726e-09
-1.55781e-09
-1.55835e-09
-1.55891e-09
-1.55946e-09
-1.56e-09
-1.56055e-09
-1.56113e-09
-1.56166e-09
-1.56221e-09
-1.56277e-09
-1.56334e-09
-1.56388e-09
-1.56445e-09
-1.56501e-09
-1.56557e-09
-1.56616e-09
-1.56672e-09
-1.56728e-09
-1.56783e-09
-1.56839e-09
-1.56895e-09
-1.56953e-09
-1.57009e-09
-1.57066e-09
-1.57125e-09
-1.57182e-09
-1.5724e-09
-1.57296e-09
-1.57354e-09
-1.57414e-09
-1.57471e-09
-1.5753e-09
-1.57587e-09
-1.57645e-09
-1.57707e-09
-1.57764e-09
-1.57823e-09
-1.57882e-09
-1.5794e-09
-1.58e-09
-1.58057e-09
-1.58117e-09
-1.58175e-09
-1.58235e-09
-1.58294e-09
-1.58354e-09
-1.58414e-09
-1.58474e-09
-1.58533e-09
-1.58592e-09
-1.58652e-09
-1.58711e-09
-1.58771e-09
-1.5883e-09
-1.5889e-09
-1.58952e-09
-1.59011e-09
-1.59072e-09
-1.59132e-09
-1.59193e-09
-1.59255e-09
-1.59313e-09
-1.59374e-09
-1.59435e-09
-1.59495e-09
-1.59559e-09
-1.59617e-09
-1.59678e-09
-1.5974e-09
-1.59803e-09
-1.59861e-09
-1.59924e-09
-1.59983e-09
-1.60044e-09
-1.60105e-09
-1.60165e-09
-1.60225e-09
-1.60287e-09
-1.60346e-09
-1.60407e-09
-1.60469e-09
-1.60531e-09
-1.60591e-09
-1.60651e-09
-1.60711e-09
-1.60773e-09
-1.60835e-09
-1.60897e-09
-1.6096e-09
-1.6102e-09
-1.61082e-09
-1.61141e-09
-1.61205e-09
-1.61266e-09
-1.61327e-09
-1.61388e-09
-1.61449e-09
-1.61508e-09
-1.61568e-09
-1.6163e-09
-1.61691e-09
-1.61753e-09
-1.61815e-09
-1.61877e-09
-1.6194e-09
-1.61999e-09
-1.6206e-09
-1.62121e-09
-1.62182e-09
-1.62244e-09
-1.62304e-09
-1.62365e-09
-1.62426e-09
-1.62489e-09
-1.62548e-09
-1.62609e-09
-1.62672e-09
-1.6273e-09
-1.62792e-09
-1.62853e-09
-1.62913e-09
-1.62973e-09
-1.63032e-09
-1.63094e-09
-1.63152e-09
-1.63213e-09
-1.63271e-09
-1.63332e-09
-1.63391e-09
-1.63449e-09
-1.63509e-09
-1.63568e-09
-1.63627e-09
-1.63689e-09
-1.63746e-09
-1.63805e-09
-1.63865e-09
-1.63926e-09
-1.63987e-09
-1.64043e-09
-1.64104e-09
-1.64163e-09
-1.64219e-09
-1.6428e-09
-1.64338e-09
-1.64396e-09
-1.64456e-09
-1.64513e-09
-1.64571e-09
-1.64629e-09
-1.64686e-09
-1.64744e-09
-1.64801e-09
-1.64862e-09
-1.64919e-09
-1.64976e-09
-1.65032e-09
-1.65092e-09
-1.65148e-09
-1.65207e-09
-1.65262e-09
-1.65318e-09
-1.65373e-09
-1.65429e-09
-1.65486e-09
-1.65541e-09
-1.65597e-09
-1.65654e-09
-1.6571e-09
-1.65762e-09
-1.65818e-09
-1.65873e-09
-1.65927e-09
-1.65983e-09
-1.66036e-09
-1.66089e-09
-1.66145e-09
-1.66198e-09
-1.66252e-09
-1.66306e-09
-1.66359e-09
-1.66412e-09
-1.66465e-09
-1.66516e-09
-1.6657e-09
-1.66621e-09
-1.66674e-09
-1.66725e-09
-1.66775e-09
-1.66826e-09
-1.66878e-09
-1.66928e-09
-1.6698e-09
-1.67028e-09
-1.67078e-09
-1.67128e-09
-1.67178e-09
-1.67227e-09
-1.67278e-09
-1.67327e-09
-1.67377e-09
-1.67424e-09
-1.67472e-09
-1.67519e-09
-1.6757e-09
-1.67616e-09
-1.67663e-09
-1.67709e-09
-1.67756e-09
-1.67803e-09
-1.67849e-09
-1.67897e-09
-1.67943e-09
-1.67986e-09
-1.68034e-09
-1.68077e-09
-1.68122e-09
-1.68169e-09
-1.68211e-09
-1.68254e-09
-1.68298e-09
-1.68339e-09
-1.68382e-09
-1.68425e-09
-1.68467e-09
-1.6851e-09
-1.68552e-09
-1.68595e-09
-1.68636e-09
-1.68677e-09
-1.68716e-09
-1.68758e-09
-1.68795e-09
-1.68835e-09
-1.68874e-09
-1.68913e-09
-1.6895e-09
-1.68987e-09
-1.69025e-09
-1.69063e-09
-1.69101e-09
-1.69137e-09
-1.69172e-09
-1.69208e-09
-1.69244e-09
-1.69279e-09
-1.69315e-09
-1.6935e-09
-1.69382e-09
-1.69415e-09
-1.6945e-09
-1.69482e-09
-1.69515e-09
-1.69548e-09
-1.69578e-09
-1.69611e-09
-1.69641e-09
-1.69672e-09
-1.69699e-09
-1.6973e-09
-1.69759e-09
-1.69787e-09
-1.69816e-09
-1.69845e-09
-1.69871e-09
-1.699e-09
-1.69926e-09
-1.69952e-09
-1.69978e-09
-1.70003e-09
-1.70026e-09
-1.7005e-09
-1.70075e-09
-1.70097e-09
-1.7012e-09
-1.70144e-09
-1.70167e-09
-1.70189e-09
-1.7021e-09
-1.70231e-09
-1.7025e-09
-1.70269e-09
-1.7029e-09
-1.70309e-09
-1.70327e-09
-1.70344e-09
-1.70362e-09
-1.70379e-09
-1.70393e-09
-1.70409e-09
-1.70424e-09
-1.70441e-09
-1.70453e-09
-1.70467e-09
-1.7048e-09
-1.70493e-09
-1.70505e-09
-1.70515e-09
-1.70526e-09
-1.70538e-09
-1.70546e-09
-1.70558e-09
-1.70565e-09
-1.70573e-09
-1.70583e-09
-1.70591e-09
-1.70596e-09
-1.70603e-09
-1.70609e-09
-1.70615e-09
-1.7062e-09
-1.70623e-09
-1.70629e-09
-1.70631e-09
-1.70633e-09
-1.70636e-09
-1.70635e-09
-1.70637e-09
-1.70636e-09
-1.70637e-09
-1.70636e-09
-1.70634e-09
-1.70632e-09
-1.70629e-09
-1.70626e-09
-1.70622e-09
-1.70618e-09
-1.70613e-09
-1.70609e-09
-1.70602e-09
-1.70596e-09
-1.70588e-09
-1.7058e-09
-1.70571e-09
-1.70561e-09
-1.70548e-09
-1.7054e-09
-1.70526e-09
-1.70515e-09
-1.70502e-09
-1.70489e-09
-1.70477e-09
-1.70461e-09
-1.70445e-09
-1.70426e-09
-1.70411e-09
-1.70395e-09
-1.70378e-09
-1.70359e-09
-1.70344e-09
-1.70322e-09
-1.70301e-09
-1.70279e-09
-1.70262e-09
-1.70238e-09
-1.70214e-09
-1.7019e-09
-1.70167e-09
-1.70138e-09
-1.7011e-09
-1.70086e-09
-1.70063e-09
-1.70035e-09
-1.70003e-09
-1.69979e-09
-1.6995e-09
-1.69916e-09
-1.69882e-09
-1.69852e-09
-1.69817e-09
-1.69784e-09
-1.69747e-09
-1.69711e-09
-1.69674e-09
-1.69636e-09
-1.69598e-09
-1.69561e-09
-1.69519e-09
-1.69476e-09
-1.69436e-09
-1.69396e-09
-1.69353e-09
-1.6931e-09
-1.6927e-09
-1.69223e-09
-1.69178e-09
-1.6913e-09
-1.69083e-09
-1.69035e-09
-1.68989e-09
-1.68938e-09
-1.68888e-09
-1.68836e-09
-1.68784e-09
-1.68734e-09
-1.68682e-09
-1.68627e-09
-1.68572e-09
-1.68518e-09
-1.6846e-09
-1.68403e-09
-1.68345e-09
-1.68284e-09
-1.68224e-09
-1.68166e-09
-1.68103e-09
-1.68041e-09
-1.67978e-09
-1.67919e-09
-1.67857e-09
-1.67792e-09
-1.67728e-09
-1.6766e-09
-1.67588e-09
-1.67521e-09
-1.67449e-09
-1.67379e-09
-1.67309e-09
-1.67239e-09
-1.67165e-09
-1.67087e-09
-1.67014e-09
-1.6694e-09
-1.66863e-09
-1.66784e-09
-1.66706e-09
-1.66627e-09
-1.6655e-09
-1.66468e-09
-1.66387e-09
-1.66307e-09
-1.66223e-09
-1.6614e-09
-1.66056e-09
-1.65966e-09
-1.65883e-09
-1.65799e-09
-1.65708e-09
-1.65618e-09
-1.65527e-09
-1.65434e-09
-1.65341e-09
-1.65251e-09
-1.65158e-09
-1.65064e-09
-1.64968e-09
-1.64874e-09
-1.64777e-09
-1.64682e-09
-1.64582e-09
-1.64483e-09
-1.64384e-09
-1.64282e-09
-1.64177e-09
-1.64073e-09
-1.63968e-09
-1.63863e-09
-1.6376e-09
-1.63652e-09
-1.63546e-09
-1.63437e-09
-1.63325e-09
-1.63217e-09
-1.63102e-09
-1.6299e-09
-1.62873e-09
-1.62759e-09
-1.62644e-09
-1.62529e-09
-1.62408e-09
-1.62288e-09
-1.6217e-09
-1.62051e-09
-1.61928e-09
-1.61807e-09
-1.61684e-09
-1.61563e-09
-1.61437e-09
-1.61313e-09
-1.61181e-09
-1.61054e-09
-1.60925e-09
-1.60799e-09
-1.60665e-09
-1.60532e-09
-1.60399e-09
-1.60269e-09
-1.60133e-09
-1.59996e-09
-1.5986e-09
-1.59722e-09
-1.59583e-09
-1.59446e-09
-1.59305e-09
-1.59165e-09
-1.59023e-09
-1.58881e-09
-1.58734e-09
-1.58585e-09
-1.58439e-09
-1.58291e-09
-1.58143e-09
-1.5799e-09
-1.5784e-09
-1.5769e-09
-1.57536e-09
-1.57385e-09
-1.57226e-09
-1.57071e-09
-1.56915e-09
-1.56758e-09
-1.56602e-09
-1.56444e-09
-1.56286e-09
-1.56124e-09
-1.55961e-09
-1.55798e-09
-1.55632e-09
-1.55465e-09
-1.55301e-09
-1.55134e-09
-1.54963e-09
-1.54794e-09
-1.54624e-09
-1.54449e-09
-1.54273e-09
-1.54101e-09
-1.53926e-09
-1.53748e-09
-1.53573e-09
-1.53398e-09
-1.53219e-09
-1.53041e-09
-1.52858e-09
-1.52675e-09
-1.52494e-09
-1.52308e-09
-1.52125e-09
-1.51941e-09
-1.51753e-09
-1.51567e-09
-1.51375e-09
-1.5119e-09
-1.50997e-09
-1.50804e-09
-1.50611e-09
-1.50417e-09
-1.50221e-09
-1.50026e-09
-1.4983e-09
-1.4963e-09
-1.49432e-09
-1.49232e-09
-1.49029e-09
-1.48826e-09
-1.48621e-09
-1.48419e-09
-1.48212e-09
-1.48006e-09
-1.47801e-09
-1.47597e-09
-1.47386e-09
-1.47177e-09
-1.46966e-09
-1.46753e-09
-1.46536e-09
-1.46322e-09
-1.46106e-09
-1.4589e-09
-1.45673e-09
-1.45451e-09
-1.45233e-09
-1.45012e-09
-1.44789e-09
-1.44569e-09
-1.44342e-09
-1.44119e-09
-1.43892e-09
-1.43666e-09
-1.43435e-09
-1.43206e-09
-1.42976e-09
-1.42745e-09
-1.42511e-09
-1.42278e-09
-1.42043e-09
-1.41808e-09
-1.4157e-09
-1.41331e-09
-1.41091e-09
-1.40854e-09
-1.40614e-09
-1.40372e-09
-1.40129e-09
-1.39885e-09
-1.39639e-09
-1.39392e-09
-1.39143e-09
-1.38898e-09
-1.38644e-09
-1.38393e-09
-1.38142e-09
-1.37891e-09
-1.37637e-09
-1.37387e-09
-1.37132e-09
-1.36874e-09
-1.36618e-09
-1.36357e-09
-1.36098e-09
-1.35836e-09
-1.35575e-09
-1.35312e-09
-1.35045e-09
-1.34784e-09
-1.34518e-09
-1.34253e-09
-1.33983e-09
-1.33712e-09
-1.33444e-09
-1.33176e-09
-1.32903e-09
-1.32634e-09
-1.32358e-09
-1.32082e-09
-1.31809e-09
-1.3153e-09
-1.31254e-09
-1.30975e-09
-1.30696e-09
-1.30414e-09
-1.30133e-09
-1.29849e-09
-1.29567e-09
-1.29281e-09
-1.28996e-09
-1.28704e-09
-1.28419e-09
-1.28127e-09
-1.27837e-09
-1.27544e-09
-1.27251e-09
-1.26957e-09
-1.26664e-09
-1.26372e-09
-1.26073e-09
-1.25773e-09
-1.25477e-09
-1.25178e-09
-1.24875e-09
-1.24573e-09
-1.24271e-09
-1.23969e-09
-1.23663e-09
-1.23359e-09
-1.23052e-09
-1.22746e-09
-1.22435e-09
-1.22127e-09
-1.21815e-09
-1.21505e-09
-1.21194e-09
-1.20884e-09
-1.20567e-09
-1.20256e-09
-1.19941e-09
-1.19624e-09
-1.19307e-09
-1.18987e-09
-1.18666e-09
-1.18344e-09
-1.1802e-09
-1.17697e-09
-1.1737e-09
-1.17046e-09
-1.16719e-09
-1.1639e-09
-1.16062e-09
-1.15733e-09
-1.15402e-09
-1.1507e-09
-1.14739e-09
-1.14406e-09
-1.14072e-09
-1.13733e-09
-1.13399e-09
-1.13062e-09
-1.12726e-09
-1.12386e-09
-1.12044e-09
-1.11705e-09
-1.11363e-09
-1.11019e-09
-1.10677e-09
-1.10331e-09
-1.09985e-09
-1.09639e-09
-1.09293e-09
-1.08946e-09
-1.08593e-09
-1.08245e-09
-1.07894e-09
-1.07544e-09
-1.07193e-09
-1.06838e-09
-1.06482e-09
-1.06127e-09
-1.05772e-09
-1.05415e-09
-1.05058e-09
-1.04697e-09
-1.04337e-09
-1.03973e-09
-1.03613e-09
-1.03249e-09
-1.02885e-09
-1.0252e-09
-1.02153e-09
-1.01787e-09
-1.01418e-09
-1.01051e-09
-1.0068e-09
-1.00308e-09
-9.99331e-10
-9.95614e-10
-9.91879e-10
-9.88135e-10
-9.84381e-10
-9.80636e-10
-9.76827e-10
-9.73072e-10
-9.69244e-10
-9.65478e-10
-9.61639e-10
-9.57808e-10
-9.53976e-10
-9.50152e-10
-9.46308e-10
-9.42436e-10
-9.38554e-10
-9.34669e-10
-9.30765e-10
-9.26895e-10
-9.22996e-10
-9.19095e-10
-9.15138e-10
-9.11213e-10
-9.07242e-10
-9.03295e-10
-8.99327e-10
-8.95356e-10
-8.91373e-10
-8.87395e-10
-8.83351e-10
-8.7934e-10
-8.75288e-10
-8.71286e-10
-8.67236e-10
-8.6319e-10
-8.59104e-10
-8.55067e-10
-8.50971e-10
-8.46887e-10
-8.42791e-10
-8.38687e-10
-8.3457e-10
-8.30464e-10
-8.26317e-10
-8.22199e-10
-8.18039e-10
-8.13845e-10
-8.09688e-10
-8.05507e-10
-8.01318e-10
-7.97104e-10
-7.92899e-10
-7.88677e-10
-7.84438e-10
-7.80172e-10
-7.75915e-10
-7.71622e-10
-7.67346e-10
-7.63068e-10
-7.58745e-10
-7.54465e-10
-7.50175e-10
-7.45837e-10
-7.41488e-10
-7.37172e-10
-7.32826e-10
-7.28476e-10
-7.24087e-10
-7.19711e-10
-7.15313e-10
-7.10884e-10
-7.06511e-10
-7.02115e-10
-6.97669e-10
-6.93224e-10
-6.88764e-10
-6.84315e-10
-6.79867e-10
-6.75384e-10
-6.70874e-10
-6.66392e-10
-6.61873e-10
-6.57371e-10
-6.52823e-10
-6.48309e-10
-6.43757e-10
-6.39201e-10
-6.34608e-10
-6.30027e-10
-6.25407e-10
-6.20818e-10
-6.16169e-10
-6.11533e-10
-6.0689e-10
-6.02222e-10
-5.97573e-10
-5.92881e-10
-5.88134e-10
-5.83432e-10
-5.78729e-10
-5.73979e-10
-5.69245e-10
-5.64472e-10
-5.59695e-10
-5.54932e-10
-5.50146e-10
-5.45362e-10
-5.40537e-10
-5.35741e-10
-5.30918e-10
-5.2606e-10
-5.2122e-10
-5.16342e-10
-5.11481e-10
-5.06563e-10
-5.0165e-10
-4.96742e-10
-4.9181e-10
-4.86855e-10
-4.81911e-10
-4.76932e-10
-4.71971e-10
-4.66956e-10
-4.61966e-10
-4.56947e-10
-4.5187e-10
-4.46843e-10
-4.41775e-10
-4.36701e-10
-4.31629e-10
-4.26539e-10
-4.21431e-10
-4.16312e-10
-4.11173e-10
-4.05996e-10
-4.00849e-10
-3.95661e-10
-3.90458e-10
-3.85255e-10
-3.80044e-10
-3.74805e-10
-3.69572e-10
-3.64301e-10
-3.59025e-10
-3.53752e-10
-3.48419e-10
-3.4314e-10
-3.3779e-10
-3.32429e-10
-3.27092e-10
-3.21715e-10
-3.16325e-10
-3.10928e-10
-3.0555e-10
-3.00136e-10
-2.94712e-10
-2.89277e-10
-2.83829e-10
-2.78322e-10
-2.72854e-10
-2.67352e-10
-2.61822e-10
-2.56345e-10
-2.50777e-10
-2.4524e-10
-2.39689e-10
-2.34097e-10
-2.28515e-10
-2.22897e-10
-2.17287e-10
-2.11675e-10
-2.06041e-10
-2.00376e-10
-1.94705e-10
-1.89009e-10
-1.83331e-10
-1.77643e-10
-1.71927e-10
-1.66235e-10
-1.60477e-10
-1.54749e-10
-1.48988e-10
-1.43238e-10
-1.3747e-10
-1.31729e-10
-1.25916e-10
-1.20145e-10
-1.14335e-10
-1.08512e-10
-1.0272e-10
-9.68953e-11
-9.10643e-11
-8.52084e-11
-7.93535e-11
-7.34991e-11
-6.76532e-11
-6.17799e-11
-5.58873e-11
-5.00107e-11
-4.4105e-11
-3.8241e-11
-3.23029e-11
-2.64059e-11
-2.05051e-11
-1.46182e-11
-8.70058e-12
-2.7875e-12
3.09414e-12
9.01567e-12
1.49147e-11
2.08626e-11
)
;

boundaryField
{
    bottom
    {
        type            fixedValue;
        value           uniform 0;
    }
    top
    {
        type            calculated;
        value           uniform 2.67568e-11;
    }
    walls
    {
        type            fixedValue;
        value           uniform 0;
    }
}


// ************************************************************************* //
