/*--------------------------------*- C++ -*----------------------------------*\
| =========                 |                                                 |
| \\      /  F ield         | foam-extend: Open Source CFD                    |
|  \\    /   O peration     | Version:     5.0                                |
|   \\  /    A nd           | Web:         http://www.foam-extend.org         |
|    \\/     M anipulation  |                                                 |
\*---------------------------------------------------------------------------*/
FoamFile
{
    version     2.0;
    format      ascii;
    class       volScalarField;
    location    "10000";
    object      S.gas;
}
// * * * * * * * * * * * * * * * * * * * * * * * * * * * * * * * * * * * * * //

dimensions      [0 0 0 0 0 0 0];

internalField   nonuniform List<scalar> 
1500
(
3.22053e-06
3.93549e-06
4.9182e-06
6.49052e-06
7.91749e-06
9.2703e-06
1.05864e-05
1.18819e-05
1.31647e-05
1.44389e-05
1.57068e-05
1.69699e-05
1.82291e-05
1.9485e-05
2.07383e-05
2.19892e-05
2.3238e-05
2.4485e-05
2.57304e-05
2.69743e-05
2.82169e-05
2.94583e-05
3.06986e-05
3.19378e-05
3.31762e-05
3.44136e-05
3.56503e-05
3.68862e-05
3.81215e-05
3.93561e-05
4.059e-05
4.18235e-05
4.30563e-05
4.42887e-05
4.55206e-05
4.6752e-05
4.7983e-05
4.92136e-05
5.04438e-05
5.16737e-05
5.29032e-05
5.41324e-05
5.53612e-05
5.65898e-05
5.7818e-05
5.9046e-05
6.02737e-05
6.15012e-05
6.27284e-05
6.39554e-05
6.51822e-05
6.64087e-05
6.7635e-05
6.88612e-05
7.00871e-05
7.13128e-05
7.25384e-05
7.37638e-05
7.4989e-05
7.62141e-05
7.7439e-05
7.86637e-05
7.98883e-05
8.11128e-05
8.23371e-05
8.35613e-05
8.47853e-05
8.60092e-05
8.7233e-05
8.84567e-05
8.96803e-05
9.09037e-05
9.21271e-05
9.33503e-05
9.45734e-05
9.57964e-05
9.70193e-05
9.82422e-05
9.94649e-05
0.000100688
0.00010191
0.000103133
0.000104355
0.000105577
0.000106799
0.000108022
0.000109244
0.000110466
0.000111687
0.000112909
0.000114131
0.000115353
0.000116574
0.000117796
0.000119017
0.000120239
0.00012146
0.000122681
0.000123903
0.000125124
0.000126345
0.000127566
0.000128787
0.000130008
0.000131229
0.00013245
0.000133671
0.000134891
0.000136112
0.000137333
0.000138553
0.000139774
0.000140994
0.000142215
0.000143435
0.000144655
0.000145876
0.000147096
0.000148316
0.000149537
0.000150757
0.000151977
0.000153197
0.000154417
0.000155637
0.000156857
0.000158077
0.000159297
0.000160517
0.000161736
0.000162956
0.000164176
0.000165396
0.000166615
0.000167835
0.000169055
0.000170274
0.000171494
0.000172713
0.000173933
0.000175152
0.000176372
0.000177591
0.000178811
0.00018003
0.000181249
0.000182469
0.000183688
0.000184907
0.000186126
0.000187346
0.000188565
0.000189784
0.000191003
0.000192222
0.000193441
0.00019466
0.000195879
0.000197098
0.000198317
0.000199536
0.000200755
0.000201974
0.000203193
0.000204412
0.000205631
0.00020685
0.000208068
0.000209287
0.000210506
0.000211725
0.000212943
0.000214162
0.000215381
0.000216599
0.000217818
0.000219037
0.000220255
0.000221474
0.000222693
0.000223911
0.00022513
0.000226348
0.000227567
0.000228785
0.000230004
0.000231222
0.000232441
0.000233659
0.000234877
0.000236096
0.000237314
0.000238533
0.000239751
0.000240969
0.000242188
0.000243406
0.000244624
0.000245842
0.000247061
0.000248279
0.000249497
0.000250715
0.000251934
0.000253152
0.00025437
0.000255588
0.000256806
0.000258024
0.000259243
0.000260461
0.000261679
0.000262897
0.000264115
0.000265333
0.000266551
0.000267769
0.000268987
0.000270205
0.000271423
0.000272641
0.000273859
0.000275077
0.000276295
0.000277513
0.000278731
0.000279949
0.000281167
0.000282385
0.000283603
0.00028482
0.000286038
0.000287256
0.000288474
0.000289692
0.00029091
0.000292128
0.000293345
0.000294563
0.000295781
0.000296999
0.000298217
0.000299455
0.000302547
0.000470256
0.00831269
0.021256
0.0339512
0.0463999
0.0586083
0.0705827
0.0823291
0.0938532
0.105161
0.116257
0.127147
0.137837
0.14833
0.158633
0.168748
0.178682
0.188438
0.198021
0.207435
0.216683
0.225769
0.234698
0.243473
0.252097
0.260574
0.268907
0.277099
0.285155
0.293076
0.300865
0.308526
0.316062
0.323475
0.330767
0.337942
0.345001
0.351948
0.358785
0.365514
0.372137
0.378657
0.385075
0.391394
0.397616
0.403743
0.409777
0.415719
0.421572
0.427337
0.433016
0.438611
0.444123
0.449554
0.454906
0.46018
0.465377
0.4705
0.475549
0.480527
0.485433
0.490271
0.49504
0.499742
0.504379
0.508952
0.513462
0.517909
0.522296
0.526623
0.530892
0.535103
0.539257
0.543356
0.5474
0.551391
0.555329
0.559215
0.563051
0.566837
0.570574
0.574262
0.577903
0.581498
0.585046
0.58855
0.59201
0.595426
0.598799
0.60213
0.60542
0.60867
0.611879
0.615049
0.61818
0.621273
0.624329
0.627348
0.63033
0.633277
0.636189
0.639066
0.641909
0.644719
0.647496
0.65024
0.652953
0.655634
0.658284
0.660904
0.663493
0.666054
0.668585
0.671087
0.673561
0.676008
0.678427
0.680819
0.683184
0.685523
0.687837
0.690125
0.692388
0.694626
0.69684
0.69903
0.701197
0.70334
0.70546
0.707558
0.709633
0.711687
0.713719
0.715729
0.717718
0.719687
0.721635
0.723563
0.725471
0.727359
0.729228
0.731078
0.732909
0.734721
0.736515
0.738291
0.740049
0.74179
0.743513
0.745219
0.746908
0.748581
0.750236
0.751876
0.7535
0.755108
0.7567
0.758277
0.759838
0.761385
0.762917
0.764434
0.765936
0.767425
0.768899
0.770359
0.771806
0.773239
0.774659
0.776065
0.777459
0.778839
0.780207
0.781562
0.782905
0.784235
0.785554
0.78686
0.788155
0.789438
0.790709
0.791969
0.793218
0.794455
0.795682
0.796897
0.798102
0.799297
0.80048
0.801654
0.802817
0.80397
0.805113
0.806246
0.80737
0.808483
0.809588
0.810682
0.811768
0.812844
0.813911
0.814969
0.816018
0.817058
0.81809
0.819113
0.820127
0.821133
0.822131
0.82312
0.824102
0.825075
0.82604
0.826998
0.827947
0.828889
0.829823
0.83075
0.831669
0.832581
0.833486
0.834383
0.835273
0.836156
0.837032
0.837901
0.838764
0.839619
0.840468
0.84131
0.842146
0.842975
0.843798
0.844614
0.845425
0.846228
0.847026
0.847818
0.848603
0.849383
0.850157
0.850924
0.851686
0.852443
0.853193
0.853938
0.854678
0.855412
0.85614
0.856863
0.857581
0.858293
0.859001
0.859703
0.860399
0.861091
0.861778
0.86246
0.863137
0.863809
0.864476
0.865138
0.865795
0.866448
0.867097
0.86774
0.868379
0.869014
0.869644
0.870269
0.870891
0.871507
0.87212
0.872728
0.873332
0.873932
0.874528
0.875119
0.875707
0.87629
0.87687
0.877445
0.878017
0.878584
0.879148
0.879708
0.880264
0.880817
0.881366
0.881911
0.882452
0.88299
0.883524
0.884055
0.884582
0.885106
0.885626
0.886143
0.886656
0.887166
0.887673
0.888177
0.888677
0.889174
0.889667
0.890158
0.890645
0.891129
0.89161
0.892088
0.892563
0.893035
0.893504
0.89397
0.894433
0.894893
0.895351
0.895805
0.896257
0.896705
0.897151
0.897594
0.898035
0.898472
0.898907
0.899339
0.899769
0.900196
0.90062
0.901042
0.901461
0.901878
0.902292
0.902703
0.903112
0.903519
0.903923
0.904325
0.904724
0.905121
0.905516
0.905908
0.906298
0.906686
0.907071
0.907454
0.907835
0.908213
0.90859
0.908964
0.909336
0.909705
0.910073
0.910439
0.910802
0.911163
0.911522
0.91188
0.912235
0.912588
0.912939
0.913288
0.913635
0.91398
0.914323
0.914665
0.915004
0.915341
0.915677
0.91601
0.916342
0.916672
0.917
0.917326
0.917651
0.917973
0.918294
0.918613
0.918931
0.919246
0.91956
0.919873
0.920183
0.920492
0.920799
0.921104
0.921408
0.92171
0.922011
0.92231
0.922607
0.922903
0.923197
0.92349
0.923781
0.92407
0.924358
0.924645
0.92493
0.925213
0.925495
0.925776
0.926055
0.926332
0.926609
0.926883
0.927157
0.927429
0.927699
0.927968
0.928236
0.928502
0.928767
0.929031
0.929293
0.929554
0.929814
0.930072
0.930329
0.930585
0.930839
0.931092
0.931344
0.931595
0.931844
0.932092
0.932339
0.932585
0.93283
0.933073
0.933315
0.933556
0.933795
0.934034
0.934271
0.934508
0.934743
0.934977
0.935209
0.935441
0.935671
0.935901
0.936129
0.936356
0.936583
0.936808
0.937032
0.937255
0.937476
0.937697
0.937917
0.938136
0.938354
0.93857
0.938786
0.939001
0.939214
0.939427
0.939639
0.939849
0.940059
0.940268
0.940476
0.940682
0.940888
0.941093
0.941297
0.9415
0.941702
0.941904
0.942104
0.942303
0.942502
0.942699
0.942896
0.943092
0.943287
0.943481
0.943674
0.943867
0.944058
0.944249
0.944439
0.944628
0.944816
0.945003
0.945189
0.945375
0.94556
0.945744
0.945927
0.94611
0.946291
0.946472
0.946652
0.946832
0.94701
0.947188
0.947365
0.947541
0.947717
0.947891
0.948065
0.948239
0.948411
0.948583
0.948754
0.948924
0.949094
0.949263
0.949431
0.949599
0.949766
0.949932
0.950097
0.950262
0.950426
0.950589
0.950752
0.950914
0.951076
0.951236
0.951396
0.951556
0.951715
0.951873
0.95203
0.952187
0.952343
0.952499
0.952654
0.952808
0.952962
0.953115
0.953268
0.953419
0.953571
0.953721
0.953872
0.954021
0.95417
0.954318
0.954466
0.954613
0.95476
0.954906
0.955051
0.955196
0.955341
0.955484
0.955628
0.95577
0.955912
0.956054
0.956195
0.956335
0.956475
0.956615
0.956754
0.956892
0.95703
0.957167
0.957304
0.95744
0.957576
0.957711
0.957846
0.95798
0.958114
0.958247
0.95838
0.958513
0.958644
0.958776
0.958906
0.959037
0.959167
0.959296
0.959425
0.959553
0.959681
0.959809
0.959936
0.960063
0.960189
0.960314
0.96044
0.960565
0.960689
0.960813
0.960936
0.961059
0.961182
0.961304
0.961426
0.961547
0.961668
0.961788
0.961908
0.962028
0.962147
0.962266
0.962384
0.962502
0.96262
0.962737
0.962854
0.96297
0.963086
0.963202
0.963317
0.963432
0.963546
0.96366
0.963774
0.963887
0.964
0.964112
0.964224
0.964336
0.964447
0.964558
0.964669
0.964779
0.964889
0.964998
0.965107
0.965216
0.965324
0.965432
0.96554
0.965648
0.965755
0.965861
0.965967
0.966073
0.966179
0.966284
0.966389
0.966494
0.966598
0.966702
0.966806
0.966909
0.967012
0.967114
0.967217
0.967319
0.96742
0.967521
0.967622
0.967723
0.967824
0.967924
0.968023
0.968123
0.968222
0.968321
0.968419
0.968517
0.968615
0.968713
0.96881
0.968907
0.969004
0.9691
0.969196
0.969292
0.969388
0.969483
0.969578
0.969672
0.969767
0.969861
0.969955
0.970048
0.970142
0.970234
0.970327
0.97042
0.970512
0.970604
0.970695
0.970787
0.970878
0.970968
0.971059
0.971149
0.971239
0.971329
0.971418
0.971508
0.971597
0.971685
0.971774
0.971862
0.97195
0.972038
0.972125
0.972212
0.972299
0.972386
0.972472
0.972559
0.972645
0.97273
0.972816
0.972901
0.972986
0.973071
0.973155
0.97324
0.973324
0.973408
0.973491
0.973575
0.973658
0.973741
0.973823
0.973906
0.973988
0.97407
0.974152
0.974233
0.974315
0.974396
0.974477
0.974557
0.974638
0.974718
0.974798
0.974878
0.974958
0.975037
0.975116
0.975195
0.975274
0.975352
0.975431
0.975509
0.975587
0.975665
0.975742
0.975819
0.975897
0.975974
0.97605
0.976127
0.976203
0.976279
0.976355
0.976431
0.976506
0.976582
0.976657
0.976732
0.976807
0.976881
0.976956
0.97703
0.977104
0.977178
0.977251
0.977325
0.977398
0.977471
0.977544
0.977617
0.977689
0.977762
0.977834
0.977906
0.977978
0.978049
0.978121
0.978192
0.978263
0.978334
0.978405
0.978475
0.978546
0.978616
0.978686
0.978756
0.978826
0.978895
0.978965
0.979034
0.979103
0.979172
0.97924
0.979309
0.979377
0.979446
0.979514
0.979582
0.979649
0.979717
0.979784
0.979852
0.979919
0.979986
0.980052
0.980119
0.980186
0.980252
0.980318
0.980384
0.98045
0.980516
0.980581
0.980646
0.980712
0.980777
0.980842
0.980906
0.980971
0.981036
0.9811
0.981164
0.981228
0.981292
0.981356
0.981419
0.981483
0.981546
0.981609
0.981672
0.981735
0.981798
0.981861
0.981923
0.981985
0.982048
0.98211
0.982171
0.982233
0.982295
0.982356
0.982418
0.982479
0.98254
0.982601
0.982662
0.982722
0.982783
0.982843
0.982903
0.982964
0.983024
0.983083
0.983143
0.983203
0.983262
0.983322
0.983381
0.98344
0.983499
0.983558
0.983616
0.983675
0.983733
0.983792
0.98385
0.983908
0.983966
0.984023
0.984081
0.984139
0.984196
0.984253
0.984311
0.984368
0.984424
0.984481
0.984538
0.984595
0.984651
0.984707
0.984763
0.98482
0.984875
0.984931
0.984987
0.985043
0.985098
0.985153
0.985209
0.985264
0.985319
0.985374
0.985428
0.985483
0.985538
0.985592
0.985646
0.985701
0.985755
0.985809
0.985862
0.985916
0.98597
0.986023
0.986077
0.98613
0.986183
0.986236
0.986289
0.986342
0.986395
0.986447
0.9865
0.986552
0.986604
0.986657
0.986709
0.986761
0.986812
0.986864
0.986916
0.986967
0.987019
0.98707
0.987121
0.987172
0.987223
0.987274
0.987325
0.987375
0.987426
0.987476
0.987527
0.987577
0.987627
0.987677
0.987727
0.987777
0.987827
0.987876
0.987926
0.987975
0.988024
0.988073
0.988122
0.988171
0.98822
0.988269
0.988318
0.988366
0.988415
0.988463
0.988511
0.988559
0.988608
0.988655
0.988703
0.988751
0.988799
0.988846
0.988894
0.988941
0.988988
0.989035
0.989082
0.989129
0.989176
0.989223
0.98927
0.989316
0.989362
0.989409
0.989455
0.989501
0.989547
0.989593
0.989639
0.989685
0.98973
0.989776
0.989821
0.989867
0.989912
0.989957
0.990002
0.990047
0.990092
0.990137
0.990181
0.990226
0.99027
0.990315
0.990359
0.990403
0.990447
0.990491
0.990535
0.990579
0.990622
0.990666
0.99071
0.990753
0.990796
0.990839
0.990883
0.990926
0.990968
0.991011
0.991054
0.991097
0.991139
0.991181
0.991224
0.991266
0.991308
0.99135
0.991392
0.991434
0.991476
0.991517
0.991559
0.9916
0.991642
0.991683
0.991724
0.991765
0.991806
0.991847
0.991888
0.991928
0.991969
0.992009
0.99205
0.99209
0.99213
0.99217
0.99221
0.99225
0.99229
0.99233
0.992369
0.992409
0.992448
0.992487
0.992527
0.992566
0.992605
0.992643
0.992682
0.992721
0.99276
0.992798
0.992836
0.992875
0.992913
0.992951
0.992989
0.993027
0.993065
0.993102
0.99314
0.993178
0.993215
0.993252
0.993289
0.993326
0.993363
0.9934
0.993437
0.993474
0.99351
0.993547
0.993583
0.993619
0.993656
0.993692
0.993728
0.993763
0.993799
0.993835
0.99387
0.993906
0.993941
0.993976
0.994011
0.994046
0.994081
0.994116
0.994151
0.994185
0.994219
0.994254
0.994288
0.994322
0.994356
0.99439
0.994424
0.994457
0.994491
0.994524
0.994558
0.994591
0.994624
0.994657
0.99469
0.994723
0.994755
0.994788
0.99482
0.994852
0.994884
0.994916
0.994948
0.99498
0.995012
0.995043
0.995075
0.995106
0.995137
0.995168
0.995199
0.99523
0.995261
0.995291
0.995322
0.995352
0.995382
0.995412
0.995442
0.995472
0.995501
0.995531
0.99556
0.995589
0.995618
0.995647
0.995676
0.995705
0.995733
0.995762
0.99579
0.995818
0.995846
0.995874
0.995901
0.995929
0.995956
0.995983
0.99601
0.996037
0.996064
0.99609
0.996117
0.996143
0.996169
0.996195
0.996221
0.996247
0.996272
0.996297
0.996322
0.996347
0.996372
0.996397
0.996421
0.996445
0.996469
0.996493
0.996517
0.996541
0.996564
0.996587
0.99661
0.996633
0.996656
0.996678
0.9967
0.996722
0.996744
0.996766
0.996787
0.996808
0.996829
0.99685
0.996871
0.996891
0.996911
0.996931
0.996951
0.996971
0.99699
0.997009
0.997028
0.997046
0.997065
0.997083
0.997101
0.997119
0.997136
0.997153
0.99717
0.997187
0.997204
0.99722
0.997236
0.997252
0.997267
0.997282
0.997297
0.997312
0.997326
0.99734
0.997354
0.997368
0.997381
0.997394
0.997407
0.99742
0.997432
0.997444
0.997456
0.997467
0.997478
0.997489
0.997499
0.997509
0.997519
0.997529
0.997538
0.997547
0.997556
0.997564
0.997572
0.99758
0.997587
0.997595
0.997601
0.997608
0.997614
0.99762
0.997625
0.997631
0.997636
0.99764
0.997644
0.997648
0.997652
0.997655
0.997658
0.997661
0.997663
0.997665
0.997667
0.997668
0.997669
0.99767
0.99767
)
;

boundaryField
{
    bottom
    {
        type            calculated;
        value           uniform 0.5;
    }
    top
    {
        type            calculated;
        value           uniform 0.99767;
    }
    walls
    {
        type            calculated;
        value           nonuniform List<scalar> 
6000
(
3.22053e-06
3.93549e-06
4.9182e-06
6.49052e-06
7.91749e-06
9.2703e-06
1.05864e-05
1.18819e-05
1.31647e-05
1.44389e-05
1.57068e-05
1.69699e-05
1.82291e-05
1.9485e-05
2.07383e-05
2.19892e-05
2.3238e-05
2.4485e-05
2.57304e-05
2.69743e-05
2.82169e-05
2.94583e-05
3.06986e-05
3.19378e-05
3.31762e-05
3.44136e-05
3.56503e-05
3.68862e-05
3.81215e-05
3.93561e-05
4.059e-05
4.18235e-05
4.30563e-05
4.42887e-05
4.55206e-05
4.6752e-05
4.7983e-05
4.92136e-05
5.04438e-05
5.16737e-05
5.29032e-05
5.41324e-05
5.53612e-05
5.65898e-05
5.7818e-05
5.9046e-05
6.02737e-05
6.15012e-05
6.27284e-05
6.39554e-05
6.51822e-05
6.64087e-05
6.7635e-05
6.88612e-05
7.00871e-05
7.13128e-05
7.25384e-05
7.37638e-05
7.4989e-05
7.62141e-05
7.7439e-05
7.86637e-05
7.98883e-05
8.11128e-05
8.23371e-05
8.35613e-05
8.47853e-05
8.60092e-05
8.7233e-05
8.84567e-05
8.96803e-05
9.09037e-05
9.21271e-05
9.33503e-05
9.45734e-05
9.57964e-05
9.70193e-05
9.82422e-05
9.94649e-05
0.000100688
0.00010191
0.000103133
0.000104355
0.000105577
0.000106799
0.000108022
0.000109244
0.000110466
0.000111687
0.000112909
0.000114131
0.000115353
0.000116574
0.000117796
0.000119017
0.000120239
0.00012146
0.000122681
0.000123903
0.000125124
0.000126345
0.000127566
0.000128787
0.000130008
0.000131229
0.00013245
0.000133671
0.000134891
0.000136112
0.000137333
0.000138553
0.000139774
0.000140994
0.000142215
0.000143435
0.000144655
0.000145876
0.000147096
0.000148316
0.000149537
0.000150757
0.000151977
0.000153197
0.000154417
0.000155637
0.000156857
0.000158077
0.000159297
0.000160517
0.000161736
0.000162956
0.000164176
0.000165396
0.000166615
0.000167835
0.000169055
0.000170274
0.000171494
0.000172713
0.000173933
0.000175152
0.000176372
0.000177591
0.000178811
0.00018003
0.000181249
0.000182469
0.000183688
0.000184907
0.000186126
0.000187346
0.000188565
0.000189784
0.000191003
0.000192222
0.000193441
0.00019466
0.000195879
0.000197098
0.000198317
0.000199536
0.000200755
0.000201974
0.000203193
0.000204412
0.000205631
0.00020685
0.000208068
0.000209287
0.000210506
0.000211725
0.000212943
0.000214162
0.000215381
0.000216599
0.000217818
0.000219037
0.000220255
0.000221474
0.000222693
0.000223911
0.00022513
0.000226348
0.000227567
0.000228785
0.000230004
0.000231222
0.000232441
0.000233659
0.000234877
0.000236096
0.000237314
0.000238533
0.000239751
0.000240969
0.000242188
0.000243406
0.000244624
0.000245842
0.000247061
0.000248279
0.000249497
0.000250715
0.000251934
0.000253152
0.00025437
0.000255588
0.000256806
0.000258024
0.000259243
0.000260461
0.000261679
0.000262897
0.000264115
0.000265333
0.000266551
0.000267769
0.000268987
0.000270205
0.000271423
0.000272641
0.000273859
0.000275077
0.000276295
0.000277513
0.000278731
0.000279949
0.000281167
0.000282385
0.000283603
0.00028482
0.000286038
0.000287256
0.000288474
0.000289692
0.00029091
0.000292128
0.000293345
0.000294563
0.000295781
0.000296999
0.000298217
0.000299455
0.000302547
0.000470256
0.00831269
0.021256
0.0339512
0.0463999
0.0586083
0.0705827
0.0823291
0.0938532
0.105161
0.116257
0.127147
0.137837
0.14833
0.158633
0.168748
0.178682
0.188438
0.198021
0.207435
0.216683
0.225769
0.234698
0.243473
0.252097
0.260574
0.268907
0.277099
0.285155
0.293076
0.300865
0.308526
0.316062
0.323475
0.330767
0.337942
0.345001
0.351948
0.358785
0.365514
0.372137
0.378657
0.385075
0.391394
0.397616
0.403743
0.409777
0.415719
0.421572
0.427337
0.433016
0.438611
0.444123
0.449554
0.454906
0.46018
0.465377
0.4705
0.475549
0.480527
0.485433
0.490271
0.49504
0.499742
0.504379
0.508952
0.513462
0.517909
0.522296
0.526623
0.530892
0.535103
0.539257
0.543356
0.5474
0.551391
0.555329
0.559215
0.563051
0.566837
0.570574
0.574262
0.577903
0.581498
0.585046
0.58855
0.59201
0.595426
0.598799
0.60213
0.60542
0.60867
0.611879
0.615049
0.61818
0.621273
0.624329
0.627348
0.63033
0.633277
0.636189
0.639066
0.641909
0.644719
0.647496
0.65024
0.652953
0.655634
0.658284
0.660904
0.663493
0.666054
0.668585
0.671087
0.673561
0.676008
0.678427
0.680819
0.683184
0.685523
0.687837
0.690125
0.692388
0.694626
0.69684
0.69903
0.701197
0.70334
0.70546
0.707558
0.709633
0.711687
0.713719
0.715729
0.717718
0.719687
0.721635
0.723563
0.725471
0.727359
0.729228
0.731078
0.732909
0.734721
0.736515
0.738291
0.740049
0.74179
0.743513
0.745219
0.746908
0.748581
0.750236
0.751876
0.7535
0.755108
0.7567
0.758277
0.759838
0.761385
0.762917
0.764434
0.765936
0.767425
0.768899
0.770359
0.771806
0.773239
0.774659
0.776065
0.777459
0.778839
0.780207
0.781562
0.782905
0.784235
0.785554
0.78686
0.788155
0.789438
0.790709
0.791969
0.793218
0.794455
0.795682
0.796897
0.798102
0.799297
0.80048
0.801654
0.802817
0.80397
0.805113
0.806246
0.80737
0.808483
0.809588
0.810682
0.811768
0.812844
0.813911
0.814969
0.816018
0.817058
0.81809
0.819113
0.820127
0.821133
0.822131
0.82312
0.824102
0.825075
0.82604
0.826998
0.827947
0.828889
0.829823
0.83075
0.831669
0.832581
0.833486
0.834383
0.835273
0.836156
0.837032
0.837901
0.838764
0.839619
0.840468
0.84131
0.842146
0.842975
0.843798
0.844614
0.845425
0.846228
0.847026
0.847818
0.848603
0.849383
0.850157
0.850924
0.851686
0.852443
0.853193
0.853938
0.854678
0.855412
0.85614
0.856863
0.857581
0.858293
0.859001
0.859703
0.860399
0.861091
0.861778
0.86246
0.863137
0.863809
0.864476
0.865138
0.865795
0.866448
0.867097
0.86774
0.868379
0.869014
0.869644
0.870269
0.870891
0.871507
0.87212
0.872728
0.873332
0.873932
0.874528
0.875119
0.875707
0.87629
0.87687
0.877445
0.878017
0.878584
0.879148
0.879708
0.880264
0.880817
0.881366
0.881911
0.882452
0.88299
0.883524
0.884055
0.884582
0.885106
0.885626
0.886143
0.886656
0.887166
0.887673
0.888177
0.888677
0.889174
0.889667
0.890158
0.890645
0.891129
0.89161
0.892088
0.892563
0.893035
0.893504
0.89397
0.894433
0.894893
0.895351
0.895805
0.896257
0.896705
0.897151
0.897594
0.898035
0.898472
0.898907
0.899339
0.899769
0.900196
0.90062
0.901042
0.901461
0.901878
0.902292
0.902703
0.903112
0.903519
0.903923
0.904325
0.904724
0.905121
0.905516
0.905908
0.906298
0.906686
0.907071
0.907454
0.907835
0.908213
0.90859
0.908964
0.909336
0.909705
0.910073
0.910439
0.910802
0.911163
0.911522
0.91188
0.912235
0.912588
0.912939
0.913288
0.913635
0.91398
0.914323
0.914665
0.915004
0.915341
0.915677
0.91601
0.916342
0.916672
0.917
0.917326
0.917651
0.917973
0.918294
0.918613
0.918931
0.919246
0.91956
0.919873
0.920183
0.920492
0.920799
0.921104
0.921408
0.92171
0.922011
0.92231
0.922607
0.922903
0.923197
0.92349
0.923781
0.92407
0.924358
0.924645
0.92493
0.925213
0.925495
0.925776
0.926055
0.926332
0.926609
0.926883
0.927157
0.927429
0.927699
0.927968
0.928236
0.928502
0.928767
0.929031
0.929293
0.929554
0.929814
0.930072
0.930329
0.930585
0.930839
0.931092
0.931344
0.931595
0.931844
0.932092
0.932339
0.932585
0.93283
0.933073
0.933315
0.933556
0.933795
0.934034
0.934271
0.934508
0.934743
0.934977
0.935209
0.935441
0.935671
0.935901
0.936129
0.936356
0.936583
0.936808
0.937032
0.937255
0.937476
0.937697
0.937917
0.938136
0.938354
0.93857
0.938786
0.939001
0.939214
0.939427
0.939639
0.939849
0.940059
0.940268
0.940476
0.940682
0.940888
0.941093
0.941297
0.9415
0.941702
0.941904
0.942104
0.942303
0.942502
0.942699
0.942896
0.943092
0.943287
0.943481
0.943674
0.943867
0.944058
0.944249
0.944439
0.944628
0.944816
0.945003
0.945189
0.945375
0.94556
0.945744
0.945927
0.94611
0.946291
0.946472
0.946652
0.946832
0.94701
0.947188
0.947365
0.947541
0.947717
0.947891
0.948065
0.948239
0.948411
0.948583
0.948754
0.948924
0.949094
0.949263
0.949431
0.949599
0.949766
0.949932
0.950097
0.950262
0.950426
0.950589
0.950752
0.950914
0.951076
0.951236
0.951396
0.951556
0.951715
0.951873
0.95203
0.952187
0.952343
0.952499
0.952654
0.952808
0.952962
0.953115
0.953268
0.953419
0.953571
0.953721
0.953872
0.954021
0.95417
0.954318
0.954466
0.954613
0.95476
0.954906
0.955051
0.955196
0.955341
0.955484
0.955628
0.95577
0.955912
0.956054
0.956195
0.956335
0.956475
0.956615
0.956754
0.956892
0.95703
0.957167
0.957304
0.95744
0.957576
0.957711
0.957846
0.95798
0.958114
0.958247
0.95838
0.958513
0.958644
0.958776
0.958906
0.959037
0.959167
0.959296
0.959425
0.959553
0.959681
0.959809
0.959936
0.960063
0.960189
0.960314
0.96044
0.960565
0.960689
0.960813
0.960936
0.961059
0.961182
0.961304
0.961426
0.961547
0.961668
0.961788
0.961908
0.962028
0.962147
0.962266
0.962384
0.962502
0.96262
0.962737
0.962854
0.96297
0.963086
0.963202
0.963317
0.963432
0.963546
0.96366
0.963774
0.963887
0.964
0.964112
0.964224
0.964336
0.964447
0.964558
0.964669
0.964779
0.964889
0.964998
0.965107
0.965216
0.965324
0.965432
0.96554
0.965648
0.965755
0.965861
0.965967
0.966073
0.966179
0.966284
0.966389
0.966494
0.966598
0.966702
0.966806
0.966909
0.967012
0.967114
0.967217
0.967319
0.96742
0.967521
0.967622
0.967723
0.967824
0.967924
0.968023
0.968123
0.968222
0.968321
0.968419
0.968517
0.968615
0.968713
0.96881
0.968907
0.969004
0.9691
0.969196
0.969292
0.969388
0.969483
0.969578
0.969672
0.969767
0.969861
0.969955
0.970048
0.970142
0.970234
0.970327
0.97042
0.970512
0.970604
0.970695
0.970787
0.970878
0.970968
0.971059
0.971149
0.971239
0.971329
0.971418
0.971508
0.971597
0.971685
0.971774
0.971862
0.97195
0.972038
0.972125
0.972212
0.972299
0.972386
0.972472
0.972559
0.972645
0.97273
0.972816
0.972901
0.972986
0.973071
0.973155
0.97324
0.973324
0.973408
0.973491
0.973575
0.973658
0.973741
0.973823
0.973906
0.973988
0.97407
0.974152
0.974233
0.974315
0.974396
0.974477
0.974557
0.974638
0.974718
0.974798
0.974878
0.974958
0.975037
0.975116
0.975195
0.975274
0.975352
0.975431
0.975509
0.975587
0.975665
0.975742
0.975819
0.975897
0.975974
0.97605
0.976127
0.976203
0.976279
0.976355
0.976431
0.976506
0.976582
0.976657
0.976732
0.976807
0.976881
0.976956
0.97703
0.977104
0.977178
0.977251
0.977325
0.977398
0.977471
0.977544
0.977617
0.977689
0.977762
0.977834
0.977906
0.977978
0.978049
0.978121
0.978192
0.978263
0.978334
0.978405
0.978475
0.978546
0.978616
0.978686
0.978756
0.978826
0.978895
0.978965
0.979034
0.979103
0.979172
0.97924
0.979309
0.979377
0.979446
0.979514
0.979582
0.979649
0.979717
0.979784
0.979852
0.979919
0.979986
0.980052
0.980119
0.980186
0.980252
0.980318
0.980384
0.98045
0.980516
0.980581
0.980646
0.980712
0.980777
0.980842
0.980906
0.980971
0.981036
0.9811
0.981164
0.981228
0.981292
0.981356
0.981419
0.981483
0.981546
0.981609
0.981672
0.981735
0.981798
0.981861
0.981923
0.981985
0.982048
0.98211
0.982171
0.982233
0.982295
0.982356
0.982418
0.982479
0.98254
0.982601
0.982662
0.982722
0.982783
0.982843
0.982903
0.982964
0.983024
0.983083
0.983143
0.983203
0.983262
0.983322
0.983381
0.98344
0.983499
0.983558
0.983616
0.983675
0.983733
0.983792
0.98385
0.983908
0.983966
0.984023
0.984081
0.984139
0.984196
0.984253
0.984311
0.984368
0.984424
0.984481
0.984538
0.984595
0.984651
0.984707
0.984763
0.98482
0.984875
0.984931
0.984987
0.985043
0.985098
0.985153
0.985209
0.985264
0.985319
0.985374
0.985428
0.985483
0.985538
0.985592
0.985646
0.985701
0.985755
0.985809
0.985862
0.985916
0.98597
0.986023
0.986077
0.98613
0.986183
0.986236
0.986289
0.986342
0.986395
0.986447
0.9865
0.986552
0.986604
0.986657
0.986709
0.986761
0.986812
0.986864
0.986916
0.986967
0.987019
0.98707
0.987121
0.987172
0.987223
0.987274
0.987325
0.987375
0.987426
0.987476
0.987527
0.987577
0.987627
0.987677
0.987727
0.987777
0.987827
0.987876
0.987926
0.987975
0.988024
0.988073
0.988122
0.988171
0.98822
0.988269
0.988318
0.988366
0.988415
0.988463
0.988511
0.988559
0.988608
0.988655
0.988703
0.988751
0.988799
0.988846
0.988894
0.988941
0.988988
0.989035
0.989082
0.989129
0.989176
0.989223
0.98927
0.989316
0.989362
0.989409
0.989455
0.989501
0.989547
0.989593
0.989639
0.989685
0.98973
0.989776
0.989821
0.989867
0.989912
0.989957
0.990002
0.990047
0.990092
0.990137
0.990181
0.990226
0.99027
0.990315
0.990359
0.990403
0.990447
0.990491
0.990535
0.990579
0.990622
0.990666
0.99071
0.990753
0.990796
0.990839
0.990883
0.990926
0.990968
0.991011
0.991054
0.991097
0.991139
0.991181
0.991224
0.991266
0.991308
0.99135
0.991392
0.991434
0.991476
0.991517
0.991559
0.9916
0.991642
0.991683
0.991724
0.991765
0.991806
0.991847
0.991888
0.991928
0.991969
0.992009
0.99205
0.99209
0.99213
0.99217
0.99221
0.99225
0.99229
0.99233
0.992369
0.992409
0.992448
0.992487
0.992527
0.992566
0.992605
0.992643
0.992682
0.992721
0.99276
0.992798
0.992836
0.992875
0.992913
0.992951
0.992989
0.993027
0.993065
0.993102
0.99314
0.993178
0.993215
0.993252
0.993289
0.993326
0.993363
0.9934
0.993437
0.993474
0.99351
0.993547
0.993583
0.993619
0.993656
0.993692
0.993728
0.993763
0.993799
0.993835
0.99387
0.993906
0.993941
0.993976
0.994011
0.994046
0.994081
0.994116
0.994151
0.994185
0.994219
0.994254
0.994288
0.994322
0.994356
0.99439
0.994424
0.994457
0.994491
0.994524
0.994558
0.994591
0.994624
0.994657
0.99469
0.994723
0.994755
0.994788
0.99482
0.994852
0.994884
0.994916
0.994948
0.99498
0.995012
0.995043
0.995075
0.995106
0.995137
0.995168
0.995199
0.99523
0.995261
0.995291
0.995322
0.995352
0.995382
0.995412
0.995442
0.995472
0.995501
0.995531
0.99556
0.995589
0.995618
0.995647
0.995676
0.995705
0.995733
0.995762
0.99579
0.995818
0.995846
0.995874
0.995901
0.995929
0.995956
0.995983
0.99601
0.996037
0.996064
0.99609
0.996117
0.996143
0.996169
0.996195
0.996221
0.996247
0.996272
0.996297
0.996322
0.996347
0.996372
0.996397
0.996421
0.996445
0.996469
0.996493
0.996517
0.996541
0.996564
0.996587
0.99661
0.996633
0.996656
0.996678
0.9967
0.996722
0.996744
0.996766
0.996787
0.996808
0.996829
0.99685
0.996871
0.996891
0.996911
0.996931
0.996951
0.996971
0.99699
0.997009
0.997028
0.997046
0.997065
0.997083
0.997101
0.997119
0.997136
0.997153
0.99717
0.997187
0.997204
0.99722
0.997236
0.997252
0.997267
0.997282
0.997297
0.997312
0.997326
0.99734
0.997354
0.997368
0.997381
0.997394
0.997407
0.99742
0.997432
0.997444
0.997456
0.997467
0.997478
0.997489
0.997499
0.997509
0.997519
0.997529
0.997538
0.997547
0.997556
0.997564
0.997572
0.99758
0.997587
0.997595
0.997601
0.997608
0.997614
0.99762
0.997625
0.997631
0.997636
0.99764
0.997644
0.997648
0.997652
0.997655
0.997658
0.997661
0.997663
0.997665
0.997667
0.997668
0.997669
0.99767
0.99767
3.22053e-06
3.93549e-06
4.9182e-06
6.49052e-06
7.91749e-06
9.2703e-06
1.05864e-05
1.18819e-05
1.31647e-05
1.44389e-05
1.57068e-05
1.69699e-05
1.82291e-05
1.9485e-05
2.07383e-05
2.19892e-05
2.3238e-05
2.4485e-05
2.57304e-05
2.69743e-05
2.82169e-05
2.94583e-05
3.06986e-05
3.19378e-05
3.31762e-05
3.44136e-05
3.56503e-05
3.68862e-05
3.81215e-05
3.93561e-05
4.059e-05
4.18235e-05
4.30563e-05
4.42887e-05
4.55206e-05
4.6752e-05
4.7983e-05
4.92136e-05
5.04438e-05
5.16737e-05
5.29032e-05
5.41324e-05
5.53612e-05
5.65898e-05
5.7818e-05
5.9046e-05
6.02737e-05
6.15012e-05
6.27284e-05
6.39554e-05
6.51822e-05
6.64087e-05
6.7635e-05
6.88612e-05
7.00871e-05
7.13128e-05
7.25384e-05