/*--------------------------------*- C++ -*----------------------------------*\
| =========                 |                                                 |
| \\      /  F ield         | foam-extend: Open Source CFD                    |
|  \\    /   O peration     | Version:     5.0                                |
|   \\  /    A nd           | Web:         http://www.foam-extend.org         |
|    \\/     M anipulation  |                                                 |
\*---------------------------------------------------------------------------*/
FoamFile
{
    version     2.0;
    format      ascii;
    class       volScalarField;
    location    "10000";
    object      S.water;
}
// * * * * * * * * * * * * * * * * * * * * * * * * * * * * * * * * * * * * * //

dimensions      [0 0 0 0 0 0 0];

internalField   nonuniform List<scalar> 
1500
(
0.999997
0.999996
0.999995
0.999994
0.999992
0.999991
0.999989
0.999988
0.999987
0.999986
0.999984
0.999983
0.999982
0.999981
0.999979
0.999978
0.999977
0.999976
0.999974
0.999973
0.999972
0.999971
0.999969
0.999968
0.999967
0.999966
0.999964
0.999963
0.999962
0.999961
0.999959
0.999958
0.999957
0.999956
0.999954
0.999953
0.999952
0.999951
0.99995
0.999948
0.999947
0.999946
0.999945
0.999943
0.999942
0.999941
0.99994
0.999938
0.999937
0.999936
0.999935
0.999934
0.999932
0.999931
0.99993
0.999929
0.999927
0.999926
0.999925
0.999924
0.999923
0.999921
0.99992
0.999919
0.999918
0.999916
0.999915
0.999914
0.999913
0.999912
0.99991
0.999909
0.999908
0.999907
0.999905
0.999904
0.999903
0.999902
0.999901
0.999899
0.999898
0.999897
0.999896
0.999894
0.999893
0.999892
0.999891
0.99989
0.999888
0.999887
0.999886
0.999885
0.999883
0.999882
0.999881
0.99988
0.999879
0.999877
0.999876
0.999875
0.999874
0.999872
0.999871
0.99987
0.999869
0.999868
0.999866
0.999865
0.999864
0.999863
0.999861
0.99986
0.999859
0.999858
0.999857
0.999855
0.999854
0.999853
0.999852
0.99985
0.999849
0.999848
0.999847
0.999846
0.999844
0.999843
0.999842
0.999841
0.999839
0.999838
0.999837
0.999836
0.999835
0.999833
0.999832
0.999831
0.99983
0.999829
0.999827
0.999826
0.999825
0.999824
0.999822
0.999821
0.99982
0.999819
0.999818
0.999816
0.999815
0.999814
0.999813
0.999811
0.99981
0.999809
0.999808
0.999807
0.999805
0.999804
0.999803
0.999802
0.9998
0.999799
0.999798
0.999797
0.999796
0.999794
0.999793
0.999792
0.999791
0.999789
0.999788
0.999787
0.999786
0.999785
0.999783
0.999782
0.999781
0.99978
0.999779
0.999777
0.999776
0.999775
0.999774
0.999772
0.999771
0.99977
0.999769
0.999768
0.999766
0.999765
0.999764
0.999763
0.999761
0.99976
0.999759
0.999758
0.999757
0.999755
0.999754
0.999753
0.999752
0.999751
0.999749
0.999748
0.999747
0.999746
0.999744
0.999743
0.999742
0.999741
0.99974
0.999738
0.999737
0.999736
0.999735
0.999733
0.999732
0.999731
0.99973
0.999729
0.999727
0.999726
0.999725
0.999724
0.999722
0.999721
0.99972
0.999719
0.999718
0.999716
0.999715
0.999714
0.999713
0.999712
0.99971
0.999709
0.999708
0.999707
0.999705
0.999704
0.999703
0.999702
0.999701
0.999697
0.99953
0.991687
0.978744
0.966049
0.9536
0.941392
0.929417
0.917671
0.906147
0.894839
0.883743
0.872853
0.862163
0.85167
0.841367
0.831252
0.821318
0.811562
0.801979
0.792565
0.783317
0.774231
0.765302
0.756527
0.747903
0.739426
0.731093
0.722901
0.714845
0.706924
0.699135
0.691474
0.683938
0.676525
0.669233
0.662058
0.654999
0.648052
0.641215
0.634486
0.627863
0.621343
0.614925
0.608606
0.602384
0.596257
0.590223
0.584281
0.578428
0.572663
0.566984
0.561389
0.555877
0.550446
0.545094
0.53982
0.534623
0.5295
0.524451
0.519473
0.514567
0.509729
0.50496
0.500258
0.495621
0.491048
0.486538
0.482091
0.477704
0.473377
0.469108
0.464897
0.460743
0.456644
0.4526
0.448609
0.444671
0.440785
0.436949
0.433163
0.429426
0.425738
0.422097
0.418502
0.414954
0.41145
0.40799
0.404574
0.401201
0.39787
0.39458
0.39133
0.388121
0.384951
0.38182
0.378727
0.375671
0.372652
0.36967
0.366723
0.363811
0.360934
0.358091
0.355281
0.352504
0.34976
0.347047
0.344366
0.341716
0.339096
0.336507
0.333946
0.331415
0.328913
0.326439
0.323992
0.321573
0.319181
0.316816
0.314477
0.312163
0.309875
0.307612
0.305374
0.30316
0.30097
0.298803
0.29666
0.29454
0.292442
0.290367
0.288313
0.286281
0.284271
0.282282
0.280313
0.278365
0.276437
0.274529
0.272641
0.270772
0.268922
0.267091
0.265279
0.263485
0.261709
0.259951
0.25821
0.256487
0.254781
0.253092
0.251419
0.249764
0.248124
0.2465
0.244892
0.2433
0.241723
0.240162
0.238615
0.237083
0.235566
0.234064
0.232575
0.231101
0.229641
0.228194
0.226761
0.225341
0.223935
0.222541
0.221161
0.219793
0.218438
0.217095
0.215765
0.214446
0.21314
0.211845
0.210562
0.209291
0.208031
0.206782
0.205545
0.204318
0.203103
0.201898
0.200703
0.19952
0.198346
0.197183
0.19603
0.194887
0.193754
0.19263
0.191517
0.190412
0.189318
0.188232
0.187156
0.186089
0.185031
0.183982
0.182942
0.18191
0.180887
0.179873
0.178867
0.177869
0.17688
0.175898
0.174925
0.17396
0.173002
0.172053
0.171111
0.170177
0.16925
0.168331
0.167419
0.166514
0.165617
0.164727
0.163844
0.162968
0.162099
0.161236
0.160381
0.159532
0.15869
0.157854
0.157025
0.156202
0.155386
0.154575
0.153772
0.152974
0.152182
0.151397
0.150617
0.149843
0.149076
0.148314
0.147557
0.146807
0.146062
0.145322
0.144588
0.14386
0.143137
0.142419
0.141707
0.140999
0.140297
0.139601
0.138909
0.138222
0.13754
0.136863
0.136191
0.135524
0.134862
0.134205
0.133552
0.132903
0.13226
0.131621
0.130986
0.130356
0.129731
0.129109
0.128493
0.12788
0.127272
0.126668
0.126068
0.125472
0.124881
0.124293
0.12371
0.12313
0.122555
0.121983
0.121416
0.120852
0.120292
0.119736
0.119183
0.118634
0.118089
0.117548
0.11701
0.116476
0.115945
0.115418
0.114894
0.114374
0.113857
0.113344
0.112834
0.112327
0.111823
0.111323
0.110826
0.110333
0.109842
0.109355
0.108871
0.10839
0.107912
0.107437
0.106965
0.106496
0.10603
0.105567
0.105107
0.104649
0.104195
0.103743
0.103295
0.102849
0.102406
0.101965
0.101528
0.101093
0.100661
0.100231
0.0998042
0.0993799
0.0989581
0.098539
0.0981224
0.0977083
0.0972967
0.0968876
0.096481
0.0960768
0.0956751
0.0952758
0.0948788
0.0944842
0.094092
0.0937021
0.0933145
0.0929292
0.0925461
0.0921653
0.0917868
0.0914105
0.0910363
0.0906644
0.0902946
0.089927
0.0895614
0.089198
0.0888368
0.0884775
0.0881204
0.0877653
0.0874122
0.0870611
0.0867121
0.086365
0.0860199
0.0856767
0.0853355
0.0849962
0.0846588
0.0843233
0.0839897
0.0836579
0.083328
0.0829999
0.0826736
0.0823492
0.0820265
0.0817057
0.0813865
0.0810692
0.0807535
0.0804396
0.0801275
0.079817
0.0795082
0.079201
0.0788956
0.0785918
0.0782896
0.077989
0.0776901
0.0773927
0.077097
0.0768028
0.0765102
0.0762191
0.0759296
0.0756416
0.0753551
0.0750701
0.0747866
0.0745047
0.0742241
0.0739451
0.0736675
0.0733914
0.0731166
0.0728433
0.0725714
0.072301
0.0720319
0.0717641
0.0714978
0.0712328
0.0709692
0.0707069
0.0704459
0.0701863
0.069928
0.069671
0.0694152
0.0691608
0.0689076
0.0686557
0.0684051
0.0681557
0.0679076
0.0676607
0.067415
0.0671705
0.0669272
0.0666852
0.0664443
0.0662046
0.065966
0.0657287
0.0654925
0.0652574
0.0650235
0.0647907
0.0645591
0.0643285
0.0640991
0.0638708
0.0636435
0.0634174
0.0631923
0.0629683
0.0627454
0.0625235
0.0623027
0.0620829
0.0618642
0.0616465
0.0614298
0.0612141
0.0609994
0.0607858
0.0605731
0.0603614
0.0601507
0.059941
0.0597323
0.0595245
0.0593176
0.0591118
0.0589068
0.0587028
0.0584998
0.0582976
0.0580964
0.0578961
0.0576967
0.0574982
0.0573006
0.0571039
0.056908
0.0567131
0.056519
0.0563258
0.0561334
0.0559419
0.0557513
0.0555615
0.0553725
0.0551844
0.054997
0.0548106
0.0546249
0.05444
0.054256
0.0540728
0.0538903
0.0537087
0.0535278
0.0533477
0.0531684
0.0529898
0.0528121
0.0526351
0.0524588
0.0522833
0.0521086
0.0519346
0.0517613
0.0515888
0.051417
0.0512459
0.0510755
0.0509059
0.0507369
0.0505687
0.0504012
0.0502344
0.0500682
0.0499028
0.049738
0.0495739
0.0494105
0.0492478
0.0490858
0.0489244
0.0487636
0.0486036
0.0484441
0.0482854
0.0481272
0.0479697
0.0478129
0.0476567
0.0475011
0.0473461
0.0471918
0.047038
0.0468849
0.0467324
0.0465805
0.0464292
0.0462785
0.0461284
0.0459789
0.04583
0.0456817
0.0455339
0.0453868
0.0452402
0.0450942
0.0449487
0.0448038
0.0446595
0.0445157
0.0443725
0.0442298
0.0440877
0.0439461
0.0438051
0.0436646
0.0435246
0.0433852
0.0432463
0.043108
0.0429701
0.0428328
0.042696
0.0425597
0.0424239
0.0422886
0.0421539
0.0420196
0.0418858
0.0417526
0.0416198
0.0414875
0.0413557
0.0412244
0.0410936
0.0409632
0.0408333
0.0407039
0.040575
0.0404465
0.0403186
0.040191
0.040064
0.0399374
0.0398112
0.0396855
0.0395603
0.0394355
0.0393111
0.0391872
0.0390637
0.0389407
0.0388181
0.0386959
0.0385742
0.0384529
0.038332
0.0382116
0.0380915
0.0379719
0.0378527
0.0377339
0.0376156
0.0374976
0.0373801
0.0372629
0.0371462
0.0370298
0.0369139
0.0367984
0.0366832
0.0365684
0.0364541
0.0363401
0.0362265
0.0361133
0.0360005
0.035888
0.0357759
0.0356642
0.0355529
0.035442
0.0353314
0.0352212
0.0351113
0.0350019
0.0348927
0.034784
0.0346756
0.0345675
0.0344598
0.0343525
0.0342455
0.0341389
0.0340326
0.0339266
0.033821
0.0337157
0.0336108
0.0335062
0.033402
0.033298
0.0331945
0.0330912
0.0329883
0.0328857
0.0327834
0.0326814
0.0325798
0.0324785
0.0323775
0.0322768
0.0321765
0.0320764
0.0319767
0.0318773
0.0317782
0.0316794
0.0315809
0.0314827
0.0313848
0.0312872
0.0311899
0.0310929
0.0309962
0.0308998
0.0308037
0.0307079
0.0306124
0.0305171
0.0304222
0.0303275
0.0302332
0.0301391
0.0300453
0.0299517
0.0298585
0.0297655
0.0296728
0.0295804
0.0294882
0.0293964
0.0293048
0.0292134
0.0291223
0.0290315
0.028941
0.0288507
0.0287607
0.028671
0.0285815
0.0284923
0.0284033
0.0283146
0.0282261
0.0281379
0.02805
0.0279623
0.0278748
0.0277876
0.0277007
0.027614
0.0275275
0.0274413
0.0273553
0.0272696
0.0271841
0.0270989
0.0270139
0.0269291
0.0268446
0.0267603
0.0266762
0.0265924
0.0265088
0.0264254
0.0263423
0.0262593
0.0261767
0.0260942
0.026012
0.02593
0.0258482
0.0257666
0.0256853
0.0256042
0.0255233
0.0254426
0.0253621
0.0252819
0.0252018
0.025122
0.0250424
0.024963
0.0248838
0.0248049
0.0247261
0.0246475
0.0245692
0.0244911
0.0244131
0.0243354
0.0242579
0.0241805
0.0241034
0.0240265
0.0239498
0.0238733
0.0237969
0.0237208
0.0236449
0.0235691
0.0234936
0.0234183
0.0233431
0.0232682
0.0231934
0.0231188
0.0230444
0.0229702
0.0228962
0.0228224
0.0227488
0.0226753
0.022602
0.022529
0.0224561
0.0223834
0.0223108
0.0222385
0.0221663
0.0220943
0.0220225
0.0219509
0.0218794
0.0218081
0.021737
0.0216661
0.0215953
0.0215247
0.0214543
0.0213841
0.021314
0.0212441
0.0211744
0.0211048
0.0210354
0.0209662
0.0208972
0.0208283
0.0207596
0.020691
0.0206226
0.0205544
0.0204863
0.0204184
0.0203507
0.0202831
0.0202157
0.0201484
0.0200813
0.0200144
0.0199476
0.019881
0.0198145
0.0197482
0.019682
0.019616
0.0195502
0.0194845
0.0194189
0.0193536
0.0192883
0.0192232
0.0191583
0.0190935
0.0190289
0.0189644
0.0189001
0.0188359
0.0187718
0.0187079
0.0186442
0.0185806
0.0185171
0.0184538
0.0183906
0.0183276
0.0182647
0.018202
0.0181394
0.018077
0.0180146
0.0179525
0.0178904
0.0178285
0.0177668
0.0177052
0.0176437
0.0175824
0.0175212
0.0174601
0.0173992
0.0173384
0.0172777
0.0172172
0.0171568
0.0170965
0.0170364
0.0169764
0.0169166
0.0168569
0.0167973
0.0167378
0.0166785
0.0166193
0.0165602
0.0165013
0.0164425
0.0163838
0.0163252
0.0162668
0.0162085
0.0161503
0.0160923
0.0160344
0.0159766
0.0159189
0.0158614
0.0158039
0.0157466
0.0156895
0.0156324
0.0155755
0.0155187
0.015462
0.0154055
0.015349
0.0152927
0.0152365
0.0151805
0.0151245
0.0150687
0.015013
0.0149574
0.0149019
0.0148465
0.0147913
0.0147362
0.0146812
0.0146263
0.0145715
0.0145169
0.0144623
0.0144079
0.0143536
0.0142994
0.0142454
0.0141914
0.0141376
0.0140838
0.0140302
0.0139767
0.0139233
0.01387
0.0138169
0.0137638
0.0137109
0.013658
0.0136053
0.0135527
0.0135002
0.0134478
0.0133956
0.0133434
0.0132914
0.0132394
0.0131876
0.0131359
0.0130842
0.0130327
0.0129813
0.01293
0.0128789
0.0128278
0.0127768
0.012726
0.0126752
0.0126246
0.012574
0.0125236
0.0124732
0.012423
0.0123729
0.0123229
0.012273
0.0122232
0.0121735
0.0121239
0.0120744
0.012025
0.0119758
0.0119266
0.0118775
0.0118285
0.0117797
0.0117309
0.0116823
0.0116337
0.0115853
0.0115369
0.0114887
0.0114405
0.0113925
0.0113445
0.0112967
0.011249
0.0112013
0.0111538
0.0111063
0.011059
0.0110118
0.0109646
0.0109176
0.0108707
0.0108238
0.0107771
0.0107305
0.010684
0.0106375
0.0105912
0.010545
0.0104988
0.0104528
0.0104069
0.010361
0.0103153
0.0102696
0.0102241
0.0101787
0.0101333
0.0100881
0.0100429
0.00999788
0.00995293
0.00990808
0.00986333
0.00981868
0.00977412
0.00972966
0.0096853
0.00964104
0.00959687
0.0095528
0.00950883
0.00946496
0.00942118
0.0093775
0.00933392
0.00929044
0.00924705
0.00920377
0.00916057
0.00911748
0.00907448
0.00903158
0.00898878
0.00894607
0.00890346
0.00886095
0.00881854
0.00877622
0.008734
0.00869188
0.00864985
0.00860792
0.00856609
0.00852436
0.00848272
0.00844118
0.00839973
0.00835839
0.00831714
0.00827599
0.00823493
0.00819398
0.00815312
0.00811236
0.00807169
0.00803113
0.00799066
0.00795029
0.00791001
0.00786984
0.00782976
0.00778978
0.0077499
0.00771012
0.00767043
0.00763085
0.00759136
0.00755197
0.00751268
0.00747349
0.00743439
0.0073954
0.00735651
0.00731771
0.00727902
0.00724042
0.00720192
0.00716353
0.00712523
0.00708703
0.00704894
0.00701094
0.00697305
0.00693526
0.00689756
0.00685997
0.00682248
0.0067851
0.00674781
0.00671063
0.00667354
0.00663656
0.00659969
0.00656292
0.00652624
0.00648968
0.00645322
0.00641686
0.0063806
0.00634445
0.00630841
0.00627247
0.00623663
0.0062009
0.00616528
0.00612976
0.00609435
0.00605905
0.00602385
0.00598877
0.00595379
0.00591891
0.00588415
0.0058495
0.00581495
0.00578052
0.00574619
0.00571198
0.00567787
0.00564388
0.00561
0.00557624
0.00554258
0.00550904
0.00547561
0.0054423
0.0054091
0.00537602
0.00534305
0.0053102
0.00527746
0.00524484
0.00521234
0.00517996
0.0051477
0.00511556
0.00508353
0.00505163
0.00501985
0.00498819
0.00495666
0.00492524
0.00489395
0.00486279
0.00483175
0.00480084
0.00477005
0.00473939
0.00470886
0.00467846
0.00464818
0.00461804
0.00458803
0.00455815
0.00452841
0.0044988
0.00446932
0.00443998
0.00441077
0.00438171
0.00435278
0.00432399
0.00429534
0.00426683
0.00423846
0.00421024
0.00418216
0.00415423
0.00412644
0.0040988
0.00407131
0.00404397
0.00401678
0.00398974
0.00396285
0.00393612
0.00390955
0.00388313
0.00385687
0.00383077
0.00380483
0.00377905
0.00375344
0.00372799
0.00370271
0.00367759
0.00365264
0.00362787
0.00360327
0.00357884
0.00355458
0.0035305
0.0035066
0.00348288
0.00345934
0.00343599
0.00341282
0.00338984
0.00336704
0.00334443
0.00332202
0.0032998
0.00327778
0.00325595
0.00323432
0.00321289
0.00319167
0.00317065
0.00314984
0.00312923
0.00310884
0.00308866
0.00306869
0.00304895
0.00302942
0.00301011
0.00299102
0.00297216
0.00295353
0.00293512
0.00291695
0.00289901
0.00288131
0.00286385
0.00284662
0.00282964
0.00281291
0.00279642
0.00278018
0.0027642
0.00274846
0.00273299
0.00271777
0.00270281
0.00268812
0.00267369
0.00265952
0.00264563
0.00263201
0.00261867
0.0026056
0.00259281
0.0025803
0.00256807
0.00255613
0.00254447
0.0025331
0.00252203
0.00251125
0.00250076
0.00249057
0.00248068
0.00247109
0.00246181
0.00245282
0.00244415
0.00243578
0.00242772
0.00241997
0.00241253
0.00240541
0.00239861
0.00239212
0.00238594
0.00238009
0.00237456
0.00236935
0.00236446
0.00235989
0.00235565
0.00235173
0.00234813
0.00234487
0.00234192
0.00233931
0.00233702
0.00233506
0.00233342
0.00233212
0.00233114
0.00233048
0.00233016
)
;

boundaryField
{
    bottom
    {
        type            calculated;
        value           uniform 0.5;
    }
    top
    {
        type            calculated;
        value           uniform 0.00233016;
    }
    walls
    {
        type            calculated;
        value           nonuniform List<scalar> 
6000
(
0.999997
0.999996
0.999995
0.999994
0.999992
0.999991
0.999989
0.999988
0.999987
0.999986
0.999984
0.999983
0.999982
0.999981
0.999979
0.999978
0.999977
0.999976
0.999974
0.999973
0.999972
0.999971
0.999969
0.999968
0.999967
0.999966
0.999964
0.999963
0.999962
0.999961
0.999959
0.999958
0.999957
0.999956
0.999954
0.999953
0.999952
0.999951
0.99995
0.999948
0.999947
0.999946
0.999945
0.999943
0.999942
0.999941
0.99994
0.999938
0.999937
0.999936
0.999935
0.999934
0.999932
0.999931
0.99993
0.999929
0.999927
0.999926
0.999925
0.999924
0.999923
0.999921
0.99992
0.999919
0.999918
0.999916
0.999915
0.999914
0.999913
0.999912
0.99991
0.999909
0.999908
0.999907
0.999905
0.999904
0.999903
0.999902
0.999901
0.999899
0.999898
0.999897
0.999896
0.999894
0.999893
0.999892
0.999891
0.99989
0.999888
0.999887
0.999886
0.999885
0.999883
0.999882
0.999881
0.99988
0.999879
0.999877
0.999876
0.999875
0.999874
0.999872
0.999871
0.99987
0.999869
0.999868
0.999866
0.999865
0.999864
0.999863
0.999861
0.99986
0.999859
0.999858
0.999857
0.999855
0.999854
0.999853
0.999852
0.99985
0.999849
0.999848
0.999847
0.999846
0.999844
0.999843
0.999842
0.999841
0.999839
0.999838
0.999837
0.999836
0.999835
0.999833
0.999832
0.999831
0.99983
0.999829
0.999827
0.999826
0.999825
0.999824
0.999822
0.999821
0.99982
0.999819
0.999818
0.999816
0.999815
0.999814
0.999813
0.999811
0.99981
0.999809
0.999808
0.999807
0.999805
0.999804
0.999803
0.999802
0.9998
0.999799
0.999798
0.999797
0.999796
0.999794
0.999793
0.999792
0.999791
0.999789
0.999788
0.999787
0.999786
0.999785
0.999783
0.999782
0.999781
0.99978
0.999779
0.999777
0.999776
0.999775
0.999774
0.999772
0.999771
0.99977
0.999769
0.999768
0.999766
0.999765
0.999764
0.999763
0.999761
0.99976
0.999759
0.999758
0.999757
0.999755
0.999754
0.999753
0.999752
0.999751
0.999749
0.999748
0.999747
0.999746
0.999744
0.999743
0.999742
0.999741
0.99974
0.999738
0.999737
0.999736
0.999735
0.999733
0.999732
0.999731
0.99973
0.999729
0.999727
0.999726
0.999725
0.999724
0.999722
0.999721
0.99972
0.999719
0.999718
0.999716
0.999715
0.999714
0.999713
0.999712
0.99971
0.999709
0.999708
0.999707
0.999705
0.999704
0.999703
0.999702
0.999701
0.999697
0.99953
0.991687
0.978744
0.966049
0.9536
0.941392
0.929417
0.917671
0.906147
0.894839
0.883743
0.872853
0.862163
0.85167
0.841367
0.831252
0.821318
0.811562
0.801979
0.792565
0.783317
0.774231
0.765302
0.756527
0.747903
0.739426
0.731093
0.722901
0.714845
0.706924
0.699135
0.691474
0.683938
0.676525
0.669233
0.662058
0.654999
0.648052
0.641215
0.634486
0.627863
0.621343
0.614925
0.608606
0.602384
0.596257
0.590223
0.584281
0.578428
0.572663
0.566984
0.561389
0.555877
0.550446
0.545094
0.53982
0.534623
0.5295
0.524451
0.519473
0.514567
0.509729
0.50496
0.500258
0.495621
0.491048
0.486538
0.482091
0.477704
0.473377
0.469108
0.464897
0.460743
0.456644
0.4526
0.448609
0.444671
0.440785
0.436949
0.433163
0.429426
0.425738
0.422097
0.418502
0.414954
0.41145
0.40799
0.404574
0.401201
0.39787
0.39458
0.39133
0.388121
0.384951
0.38182
0.378727
0.375671
0.372652
0.36967
0.366723
0.363811
0.360934
0.358091
0.355281
0.352504
0.34976
0.347047
0.344366
0.341716
0.339096
0.336507
0.333946
0.331415
0.328913
0.326439
0.323992
0.321573
0.319181
0.316816
0.314477
0.312163
0.309875
0.307612
0.305374
0.30316
0.30097
0.298803
0.29666
0.29454
0.292442
0.290367
0.288313
0.286281
0.284271
0.282282
0.280313
0.278365
0.276437
0.274529
0.272641
0.270772
0.268922
0.267091
0.265279
0.263485
0.261709
0.259951
0.25821
0.256487
0.254781
0.253092
0.251419
0.249764
0.248124
0.2465
0.244892
0.2433
0.241723
0.240162
0.238615
0.237083
0.235566
0.234064
0.232575
0.231101
0.229641
0.228194
0.226761
0.225341
0.223935
0.222541
0.221161
0.219793
0.218438
0.217095
0.215765
0.214446
0.21314
0.211845
0.210562
0.209291
0.208031
0.206782
0.205545
0.204318
0.203103
0.201898
0.200703
0.19952
0.198346
0.197183
0.19603
0.194887
0.193754
0.19263
0.191517
0.190412
0.189318
0.188232
0.187156
0.186089
0.185031
0.183982
0.182942
0.18191
0.180887
0.179873
0.178867
0.177869
0.17688
0.175898
0.174925
0.17396
0.173002
0.172053
0.171111
0.170177
0.16925
0.168331
0.167419
0.166514
0.165617
0.164727
0.163844
0.162968
0.162099
0.161236
0.160381
0.159532
0.15869
0.157854
0.157025
0.156202
0.155386
0.154575
0.153772
0.152974
0.152182
0.151397
0.150617
0.149843
0.149076
0.148314
0.147557
0.146807
0.146062
0.145322
0.144588
0.14386
0.143137
0.142419
0.141707
0.140999
0.140297
0.139601
0.138909
0.138222
0.13754
0.136863
0.136191
0.135524
0.134862
0.134205
0.133552
0.132903
0.13226
0.131621
0.130986
0.130356
0.129731
0.129109
0.128493
0.12788
0.127272
0.126668
0.126068
0.125472
0.124881
0.124293
0.12371
0.12313
0.122555
0.121983
0.121416
0.120852
0.120292
0.119736
0.119183
0.118634
0.118089
0.117548
0.11701
0.116476
0.115945
0.115418
0.114894
0.114374
0.113857
0.113344
0.112834
0.112327
0.111823
0.111323
0.110826
0.110333
0.109842
0.109355
0.108871
0.10839
0.107912
0.107437
0.106965
0.106496
0.10603
0.105567
0.105107
0.104649
0.104195
0.103743
0.103295
0.102849
0.102406
0.101965
0.101528
0.101093
0.100661
0.100231
0.0998042
0.0993799
0.0989581
0.098539
0.0981224
0.0977083
0.0972967
0.0968876
0.096481
0.0960768
0.0956751
0.0952758
0.0948788
0.0944842
0.094092
0.0937021
0.0933145
0.0929292
0.0925461
0.0921653
0.0917868
0.0914105
0.0910363
0.0906644
0.0902946
0.089927
0.0895614
0.089198
0.0888368
0.0884775
0.0881204
0.0877653
0.0874122
0.0870611
0.0867121
0.086365
0.0860199
0.0856767
0.0853355
0.0849962
0.0846588
0.0843233
0.0839897
0.0836579
0.083328
0.0829999
0.0826736
0.0823492
0.0820265
0.0817057
0.0813865
0.0810692
0.0807535
0.0804396
0.0801275
0.079817
0.0795082
0.079201
0.0788956
0.0785918
0.0782896
0.077989
0.0776901
0.0773927
0.077097
0.0768028
0.0765102
0.0762191
0.0759296
0.0756416
0.0753551
0.0750701
0.0747866
0.0745047
0.0742241
0.0739451
0.0736675
0.0733914
0.0731166
0.0728433
0.0725714
0.072301
0.0720319
0.0717641
0.0714978
0.0712328
0.0709692
0.0707069
0.0704459
0.0701863
0.069928
0.069671
0.0694152
0.0691608
0.0689076
0.0686557
0.0684051
0.0681557
0.0679076
0.0676607
0.067415
0.0671705
0.0669272
0.0666852
0.0664443
0.0662046
0.065966
0.0657287
0.0654925
0.0652574
0.0650235
0.0647907
0.0645591
0.0643285
0.0640991
0.0638708
0.0636435
0.0634174
0.0631923
0.0629683
0.0627454
0.0625235
0.0623027
0.0620829
0.0618642
0.0616465
0.0614298
0.0612141
0.0609994
0.0607858
0.0605731
0.0603614
0.0601507
0.059941
0.0597323
0.0595245
0.0593176
0.0591118
0.0589068
0.0587028
0.0584998
0.0582976
0.0580964
0.0578961
0.0576967
0.0574982
0.0573006
0.0571039
0.056908
0.0567131
0.056519
0.0563258
0.0561334
0.0559419
0.0557513
0.0555615
0.0553725
0.0551844
0.054997
0.0548106
0.0546249
0.05444
0.054256
0.0540728
0.0538903
0.0537087
0.0535278
0.0533477
0.0531684
0.0529898
0.0528121
0.0526351
0.0524588
0.0522833
0.0521086
0.0519346
0.0517613
0.0515888
0.051417
0.0512459
0.0510755
0.0509059
0.0507369
0.0505687
0.0504012
0.0502344
0.0500682
0.0499028
0.049738
0.0495739
0.0494105
0.0492478
0.0490858
0.0489244
0.0487636
0.0486036
0.0484441
0.0482854
0.0481272
0.0479697
0.0478129
0.0476567
0.0475011
0.0473461
0.0471918
0.047038
0.0468849
0.0467324
0.0465805
0.0464292
0.0462785
0.0461284
0.0459789
0.04583
0.0456817
0.0455339
0.0453868
0.0452402
0.0450942
0.0449487
0.0448038
0.0446595
0.0445157
0.0443725
0.0442298
0.0440877
0.0439461
0.0438051
0.0436646
0.0435246
0.0433852
0.0432463
0.043108
0.0429701
0.0428328
0.042696
0.0425597
0.0424239
0.0422886
0.0421539
0.0420196
0.0418858
0.0417526
0.0416198
0.0414875
0.0413557
0.0412244
0.0410936
0.0409632
0.0408333
0.0407039
0.040575
0.0404465
0.0403186
0.040191
0.040064
0.0399374
0.0398112
0.0396855
0.0395603
0.0394355
0.0393111
0.0391872
0.0390637
0.0389407
0.0388181
0.0386959
0.0385742
0.0384529
0.038332
0.0382116
0.0380915
0.0379719
0.0378527
0.0377339
0.0376156
0.0374976
0.0373801
0.0372629
0.0371462
0.0370298
0.0369139
0.0367984
0.0366832
0.0365684
0.0364541
0.0363401
0.0362265
0.0361133
0.0360005
0.035888
0.0357759
0.0356642
0.0355529
0.035442
0.0353314
0.0352212
0.0351113
0.0350019
0.0348927
0.034784
0.0346756
0.0345675
0.0344598
0.0343525
0.0342455
0.0341389
0.0340326
0.0339266
0.033821
0.0337157
0.0336108
0.0335062
0.033402
0.033298
0.0331945
0.0330912
0.0329883
0.0328857
0.0327834
0.0326814
0.0325798
0.0324785
0.0323775
0.0322768
0.0321765
0.0320764
0.0319767
0.0318773
0.0317782
0.0316794
0.0315809
0.0314827
0.0313848
0.0312872
0.0311899
0.0310929
0.0309962
0.0308998
0.0308037
0.0307079
0.0306124
0.0305171
0.0304222
0.0303275
0.0302332
0.0301391
0.0300453
0.0299517
0.0298585
0.0297655
0.0296728
0.0295804
0.0294882
0.0293964
0.0293048
0.0292134
0.0291223
0.0290315
0.028941
0.0288507
0.0287607
0.028671
0.0285815
0.0284923
0.0284033
0.0283146
0.0282261
0.0281379
0.02805
0.0279623
0.0278748
0.0277876
0.0277007
0.027614
0.0275275
0.0274413
0.0273553
0.0272696
0.0271841
0.0270989
0.0270139
0.0269291
0.0268446
0.0267603
0.0266762
0.0265924
0.0265088
0.0264254
0.0263423
0.0262593
0.0261767
0.0260942
0.026012
0.02593
0.0258482
0.0257666
0.0256853
0.0256042
0.0255233
0.0254426
0.0253621
0.0252819
0.0252018
0.025122
0.0250424
0.024963
0.0248838
0.0248049
0.0247261
0.0246475
0.0245692
0.0244911
0.0244131
0.0243354
0.0242579
0.0241805
0.0241034
0.0240265
0.0239498
0.0238733
0.0237969
0.0237208
0.0236449
0.0235691
0.0234936
0.0234183
0.0233431
0.0232682
0.0231934
0.0231188
0.0230444
0.0229702
0.0228962
0.0228224
0.0227488
0.0226753
0.022602
0.022529
0.0224561
0.0223834
0.0223108
0.0222385
0.0221663
0.0220943
0.0220225
0.0219509
0.0218794
0.0218081
0.021737
0.0216661
0.0215953
0.0215247
0.0214543
0.0213841
0.021314
0.0212441
0.0211744
0.0211048
0.0210354
0.0209662
0.0208972
0.0208283
0.0207596
0.020691
0.0206226
0.0205544
0.0204863
0.0204184
0.0203507
0.0202831
0.0202157
0.0201484
0.0200813
0.0200144
0.0199476
0.019881
0.0198145
0.0197482
0.019682
0.019616
0.0195502
0.0194845
0.0194189
0.0193536
0.0192883
0.0192232
0.0191583
0.0190935
0.0190289
0.0189644
0.0189001
0.0188359
0.0187718
0.0187079
0.0186442
0.0185806
0.0185171
0.0184538
0.0183906
0.0183276
0.0182647
0.018202
0.0181394
0.018077
0.0180146
0.0179525
0.0178904
0.0178285
0.0177668
0.0177052
0.0176437
0.0175824
0.0175212
0.0174601
0.0173992
0.0173384
0.0172777
0.0172172
0.0171568
0.0170965
0.0170364
0.0169764
0.0169166
0.0168569
0.0167973
0.0167378
0.0166785
0.0166193
0.0165602
0.0165013
0.0164425
0.0163838
0.0163252
0.0162668
0.0162085
0.0161503
0.0160923
0.0160344
0.0159766
0.0159189
0.0158614
0.0158039
0.0157466
0.0156895
0.0156324
0.0155755
0.0155187
0.015462
0.0154055
0.015349
0.0152927
0.0152365
0.0151805
0.0151245
0.0150687
0.015013
0.0149574
0.0149019
0.0148465
0.0147913
0.0147362
0.0146812
0.0146263
0.0145715
0.0145169
0.0144623
0.0144079
0.0143536
0.0142994
0.0142454
0.0141914
0.0141376
0.0140838
0.0140302
0.0139767
0.0139233
0.01387
0.0138169
0.0137638
0.0137109
0.013658
0.0136053
0.0135527
0.0135002
0.0134478
0.0133956
0.0133434
0.0132914
0.0132394
0.0131876
0.0131359
0.0130842
0.0130327
0.0129813
0.01293
0.0128789
0.0128278
0.0127768
0.012726
0.0126752
0.0126246
0.012574
0.0125236
0.0124732
0.012423
0.0123729
0.0123229
0.012273
0.0122232
0.0121735
0.0121239
0.0120744
0.012025
0.0119758
0.0119266
0.0118775
0.0118285
0.0117797
0.0117309
0.0116823
0.0116337
0.0115853
0.0115369
0.0114887
0.0114405
0.0113925
0.0113445
0.0112967
0.011249
0.0112013
0.0111538
0.0111063
0.011059
0.0110118
0.0109646
0.0109176
0.0108707
0.0108238
0.0107771
0.0107305
0.010684
0.0106375
0.0105912
0.010545
0.0104988
0.0104528
0.0104069
0.010361
0.0103153
0.0102696
0.0102241
0.0101787
0.0101333
0.0100881
0.0100429
0.00999788
0.00995293
0.00990808
0.00986333
0.00981868
0.00977412
0.00972966
0.0096853
0.00964104
0.00959687
0.0095528
0.00950883
0.00946496
0.00942118
0.0093775
0.00933392
0.00929044
0.00924705
0.00920377
0.00916057
0.00911748
0.00907448
0.00903158
0.00898878
0.00894607
0.00890346
0.00886095
0.00881854
0.00877622
0.008734
0.00869188
0.00864985
0.00860792
0.00856609
0.00852436
0.00848272
0.00844118
0.00839973
0.00835839
0.00831714
0.00827599
0.00823493
0.00819398
0.00815312
0.00811236
0.00807169
0.00803113
0.00799066
0.00795029
0.00791001
0.00786984
0.00782976
0.00778978
0.0077499
0.00771012
0.00767043
0.00763085
0.00759136
0.00755197
0.00751268
0.00747349
0.00743439
0.0073954
0.00735651
0.00731771
0.00727902
0.00724042
0.00720192
0.00716353
0.00712523
0.00708703
0.00704894
0.00701094
0.00697305
0.00693526
0.00689756
0.00685997
0.00682248
0.0067851
0.00674781
0.00671063
0.00667354
0.00663656
0.00659969
0.00656292
0.00652624
0.00648968
0.00645322
0.00641686
0.0063806
0.00634445
0.00630841
0.00627247
0.00623663
0.0062009
0.00616528
0.00612976
0.00609435
0.00605905
0.00602385
0.00598877
0.00595379
0.00591891
0.00588415
0.0058495
0.00581495
0.00578052
0.00574619
0.00571198
0.00567787
0.00564388
0.00561
0.00557624
0.00554258
0.00550904
0.00547561
0.0054423
0.0054091
0.00537602
0.00534305
0.0053102
0.00527746
0.00524484
0.00521234
0.00517996
0.0051477
0.00511556
0.00508353
0.00505163
0.00501985
0.00498819
0.00495666
0.00492524
0.00489395
0.00486279
0.00483175
0.00480084
0.00477005
0.00473939
0.00470886
0.00467846
0.00464818
0.00461804
0.00458803
0.00455815
0.00452841
0.0044988
0.00446932
0.00443998
0.00441077
0.00438171
0.00435278
0.00432399
0.00429534
0.00426683
0.00423846
0.00421024
0.00418216
0.00415423
0.00412644
0.0040988
0.00407131
0.00404397
0.00401678
0.00398974
0.00396285
0.00393612
0.00390955
0.00388313
0.00385687
0.00383077
0.00380483
0.00377905
0.00375344
0.00372799
0.00370271
0.00367759
0.00365264
0.00362787
0.00360327
0.00357884
0.00355458
0.0035305
0.0035066
0.00348288
0.00345934
0.00343599
0.00341282
0.00338984
0.00336704
0.00334443
0.00332202
0.0032998
0.00327778
0.00325595
0.00323432
0.00321289
0.00319167
0.00317065
0.00314984
0.00312923
0.00310884
0.00308866
0.00306869
0.00304895
0.00302942
0.00301011
0.00299102
0.00297216
0.00295353
0.00293512
0.00291695
0.00289901
0.00288131
0.00286385
0.00284662
0.00282964
0.00281291
0.00279642
0.00278018
0.0027642
0.00274846
0.00273299
0.00271777
0.00270281
0.00268812
0.00267369
0.00265952
0.00264563
0.00263201
0.00261867
0.0026056
0.00259281
0.0025803
0.00256807
0.00255613
0.00254447
0.0025331
0.00252203
0.00251125
0.00250076
0.00249057
0.00248068
0.00247109
0.00246181
0.00245282
0.00244415
0.00243578
0.00242772
0.00241997