/*--------------------------------*- C++ -*----------------------------------*\
| =========                 |                                                 |
| \\      /  F ield         | foam-extend: Open Source CFD                    |
|  \\    /   O peration     | Version:     5.0                                |
|   \\  /    A nd           | Web:         http://www.foam-extend.org         |
|    \\/     M anipulation  |                                                 |
\*---------------------------------------------------------------------------*/
FoamFile
{
    version     2.0;
    format      ascii;
    class       volVectorField;
    location    "10000";
    object      U.gas;
}
// * * * * * * * * * * * * * * * * * * * * * * * * * * * * * * * * * * * * * //

dimensions      [0 1 -1 0 0 0 0];

internalField   nonuniform List<vector> 
1500
(
(0 8.31178e-09 0)
(0 3.30605e-08 0)
(0 8.98805e-08 0)
(0 1.40517e-07 0)
(0 1.84266e-07 0)
(0 2.2316e-07 0)
(0 2.6035e-07 0)
(0 2.96677e-07 0)
(0 3.32517e-07 0)
(0 3.68054e-07 0)
(0 4.03386e-07 0)
(0 4.38567e-07 0)
(0 4.73631e-07 0)
(0 5.08602e-07 0)
(0 5.43494e-07 0)
(0 5.78319e-07 0)
(0 6.13086e-07 0)
(0 6.47802e-07 0)
(0 6.82472e-07 0)
(0 7.17102e-07 0)
(0 7.51694e-07 0)
(0 7.86253e-07 0)
(0 8.20781e-07 0)
(0 8.55281e-07 0)
(0 8.89755e-07 0)
(0 9.24205e-07 0)
(0 9.58632e-07 0)
(0 9.93039e-07 0)
(0 1.02743e-06 0)
(0 1.0618e-06 0)
(0 1.09615e-06 0)
(0 1.13049e-06 0)
(0 1.16481e-06 0)
(0 1.19911e-06 0)
(0 1.23341e-06 0)
(0 1.26769e-06 0)
(0 1.30196e-06 0)
(0 1.33622e-06 0)
(0 1.37047e-06 0)
(0 1.4047e-06 0)
(0 1.43893e-06 0)
(0 1.47315e-06 0)
(0 1.50736e-06 0)
(0 1.54156e-06 0)
(0 1.57576e-06 0)
(0 1.60994e-06 0)
(0 1.64412e-06 0)
(0 1.67829e-06 0)
(0 1.71246e-06 0)
(0 1.74661e-06 0)
(0 1.78076e-06 0)
(0 1.81491e-06 0)
(0 1.84905e-06 0)
(0 1.88318e-06 0)
(0 1.91731e-06 0)
(0 1.95144e-06 0)
(0 1.98555e-06 0)
(0 2.01967e-06 0)
(0 2.05378e-06 0)
(0 2.08788e-06 0)
(0 2.12198e-06 0)
(0 2.15608e-06 0)
(0 2.19017e-06 0)
(0 2.22425e-06 0)
(0 2.25834e-06 0)
(0 2.29242e-06 0)
(0 2.32649e-06 0)
(0 2.36057e-06 0)
(0 2.39464e-06 0)
(0 2.4287e-06 0)
(0 2.46276e-06 0)
(0 2.49682e-06 0)
(0 2.53088e-06 0)
(0 2.56493e-06 0)
(0 2.59898e-06 0)
(0 2.63303e-06 0)
(0 2.66707e-06 0)
(0 2.70112e-06 0)
(0 2.73516e-06 0)
(0 2.76919e-06 0)
(0 2.80323e-06 0)
(0 2.83726e-06 0)
(0 2.87129e-06 0)
(0 2.90532e-06 0)
(0 2.93934e-06 0)
(0 2.97336e-06 0)
(0 3.00738e-06 0)
(0 3.0414e-06 0)
(0 3.07542e-06 0)
(0 3.10943e-06 0)
(0 3.14344e-06 0)
(0 3.17745e-06 0)
(0 3.21146e-06 0)
(0 3.24547e-06 0)
(0 3.27947e-06 0)
(0 3.31348e-06 0)
(0 3.34748e-06 0)
(0 3.38148e-06 0)
(0 3.41547e-06 0)
(0 3.44947e-06 0)
(0 3.48346e-06 0)
(0 3.51746e-06 0)
(0 3.55145e-06 0)
(0 3.58544e-06 0)
(0 3.61943e-06 0)
(0 3.65341e-06 0)
(0 3.6874e-06 0)
(0 3.72138e-06 0)
(0 3.75537e-06 0)
(0 3.78935e-06 0)
(0 3.82333e-06 0)
(0 3.85731e-06 0)
(0 3.89128e-06 0)
(0 3.92526e-06 0)
(0 3.95923e-06 0)
(0 3.99321e-06 0)
(0 4.02718e-06 0)
(0 4.06115e-06 0)
(0 4.09512e-06 0)
(0 4.12909e-06 0)
(0 4.16306e-06 0)
(0 4.19702e-06 0)
(0 4.23099e-06 0)
(0 4.26495e-06 0)
(0 4.29892e-06 0)
(0 4.33288e-06 0)
(0 4.36684e-06 0)
(0 4.4008e-06 0)
(0 4.43476e-06 0)
(0 4.46872e-06 0)
(0 4.50268e-06 0)
(0 4.53663e-06 0)
(0 4.57059e-06 0)
(0 4.60454e-06 0)
(0 4.6385e-06 0)
(0 4.67245e-06 0)
(0 4.7064e-06 0)
(0 4.74035e-06 0)
(0 4.7743e-06 0)
(0 4.80825e-06 0)
(0 4.8422e-06 0)
(0 4.87615e-06 0)
(0 4.9101e-06 0)
(0 4.94404e-06 0)
(0 4.97799e-06 0)
(0 5.01193e-06 0)
(0 5.04588e-06 0)
(0 5.07982e-06 0)
(0 5.11376e-06 0)
(0 5.1477e-06 0)
(0 5.18164e-06 0)
(0 5.21558e-06 0)
(0 5.24952e-06 0)
(0 5.28346e-06 0)
(0 5.3174e-06 0)
(0 5.35134e-06 0)
(0 5.38528e-06 0)
(0 5.41921e-06 0)
(0 5.45315e-06 0)
(0 5.48708e-06 0)
(0 5.52102e-06 0)
(0 5.55495e-06 0)
(0 5.58888e-06 0)
(0 5.62282e-06 0)
(0 5.65675e-06 0)
(0 5.69068e-06 0)
(0 5.72461e-06 0)
(0 5.75854e-06 0)
(0 5.79247e-06 0)
(0 5.8264e-06 0)
(0 5.86033e-06 0)
(0 5.89425e-06 0)
(0 5.92818e-06 0)
(0 5.96211e-06 0)
(0 5.99603e-06 0)
(0 6.02996e-06 0)
(0 6.06388e-06 0)
(0 6.09781e-06 0)
(0 6.13173e-06 0)
(0 6.16566e-06 0)
(0 6.19958e-06 0)
(0 6.2335e-06 0)
(0 6.26743e-06 0)
(0 6.30135e-06 0)
(0 6.33527e-06 0)
(0 6.36919e-06 0)
(0 6.40311e-06 0)
(0 6.43703e-06 0)
(0 6.47095e-06 0)
(0 6.50487e-06 0)
(0 6.53879e-06 0)
(0 6.5727e-06 0)
(0 6.60662e-06 0)
(0 6.64054e-06 0)
(0 6.67445e-06 0)
(0 6.70837e-06 0)
(0 6.74229e-06 0)
(0 6.7762e-06 0)
(0 6.81012e-06 0)
(0 6.84403e-06 0)
(0 6.87795e-06 0)
(0 6.91186e-06 0)
(0 6.94577e-06 0)
(0 6.97969e-06 0)
(0 7.0136e-06 0)
(0 7.04751e-06 0)
(0 7.08142e-06 0)
(0 7.11534e-06 0)
(0 7.14925e-06 0)
(0 7.18316e-06 0)
(0 7.21707e-06 0)
(0 7.25098e-06 0)
(0 7.28489e-06 0)
(0 7.3188e-06 0)
(0 7.35271e-06 0)
(0 7.38662e-06 0)
(0 7.42052e-06 0)
(0 7.45443e-06 0)
(0 7.48834e-06 0)
(0 7.52225e-06 0)
(0 7.55615e-06 0)
(0 7.59006e-06 0)
(0 7.62397e-06 0)
(0 7.65787e-06 0)
(0 7.69178e-06 0)
(0 7.72568e-06 0)
(0 7.75959e-06 0)
(0 7.79349e-06 0)
(0 7.8274e-06 0)
(0 7.8613e-06 0)
(0 7.89521e-06 0)
(0 7.92911e-06 0)
(0 7.96301e-06 0)
(0 7.99692e-06 0)
(0 8.03082e-06 0)
(0 8.06472e-06 0)
(0 8.09862e-06 0)
(0 8.13253e-06 0)
(0 8.16643e-06 0)
(0 8.20033e-06 0)
(0 8.23423e-06 0)
(0 8.26812e-06 0)
(0 8.30144e-06 0)
(0 8.28261e-06 0)
(0 5.29713e-06 0)
(0 1.78454e-07 0)
(0 -2.19048e-08 0)
(0 -7.00805e-08 0)
(0 -9.17275e-08 0)
(0 -1.04029e-07 0)
(0 -1.11962e-07 0)
(0 -1.17503e-07 0)
(0 -1.21592e-07 0)
(0 -1.24734e-07 0)
(0 -1.27224e-07 0)
(0 -1.29245e-07 0)
(0 -1.30919e-07 0)
(0 -1.32329e-07 0)
(0 -1.33531e-07 0)
(0 -1.3457e-07 0)
(0 -1.35476e-07 0)
(0 -1.36273e-07 0)
(0 -1.36979e-07 0)
(0 -1.37611e-07 0)
(0 -1.38177e-07 0)
(0 -1.38689e-07 0)
(0 -1.39154e-07 0)
(0 -1.39578e-07 0)
(0 -1.39967e-07 0)
(0 -1.40325e-07 0)
(0 -1.40654e-07 0)
(0 -1.40959e-07 0)
(0 -1.41242e-07 0)
(0 -1.41506e-07 0)
(0 -1.41751e-07 0)
(0 -1.41981e-07 0)
(0 -1.42197e-07 0)
(0 -1.42401e-07 0)
(0 -1.42592e-07 0)
(0 -1.42771e-07 0)
(0 -1.42941e-07 0)
(0 -1.43103e-07 0)
(0 -1.43256e-07 0)
(0 -1.43402e-07 0)
(0 -1.4354e-07 0)
(0 -1.43672e-07 0)
(0 -1.43798e-07 0)
(0 -1.43919e-07 0)
(0 -1.44034e-07 0)
(0 -1.44144e-07 0)
(0 -1.4425e-07 0)
(0 -1.44351e-07 0)
(0 -1.44448e-07 0)
(0 -1.44542e-07 0)
(0 -1.44632e-07 0)
(0 -1.44719e-07 0)
(0 -1.44803e-07 0)
(0 -1.44884e-07 0)
(0 -1.44963e-07 0)
(0 -1.4504e-07 0)
(0 -1.45113e-07 0)
(0 -1.45184e-07 0)
(0 -1.45254e-07 0)
(0 -1.45321e-07 0)
(0 -1.45385e-07 0)
(0 -1.45448e-07 0)
(0 -1.45509e-07 0)
(0 -1.4557e-07 0)
(0 -1.45628e-07 0)
(0 -1.45685e-07 0)
(0 -1.4574e-07 0)
(0 -1.45793e-07 0)
(0 -1.45847e-07 0)
(0 -1.45898e-07 0)
(0 -1.45948e-07 0)
(0 -1.45997e-07 0)
(0 -1.46046e-07 0)
(0 -1.46094e-07 0)
(0 -1.46141e-07 0)
(0 -1.46186e-07 0)
(0 -1.46231e-07 0)
(0 -1.46276e-07 0)
(0 -1.4632e-07 0)
(0 -1.46362e-07 0)
(0 -1.46404e-07 0)
(0 -1.46445e-07 0)
(0 -1.46485e-07 0)
(0 -1.46525e-07 0)
(0 -1.46563e-07 0)
(0 -1.46603e-07 0)
(0 -1.46641e-07 0)
(0 -1.46678e-07 0)
(0 -1.46715e-07 0)
(0 -1.46752e-07 0)
(0 -1.46788e-07 0)
(0 -1.46824e-07 0)
(0 -1.46859e-07 0)
(0 -1.46895e-07 0)
(0 -1.46929e-07 0)
(0 -1.46964e-07 0)
(0 -1.46999e-07 0)
(0 -1.47034e-07 0)
(0 -1.47068e-07 0)
(0 -1.47101e-07 0)
(0 -1.47133e-07 0)
(0 -1.47166e-07 0)
(0 -1.47199e-07 0)
(0 -1.47232e-07 0)
(0 -1.47263e-07 0)
(0 -1.47294e-07 0)
(0 -1.47326e-07 0)
(0 -1.47357e-07 0)
(0 -1.47388e-07 0)
(0 -1.47419e-07 0)
(0 -1.47451e-07 0)
(0 -1.47482e-07 0)
(0 -1.47513e-07 0)
(0 -1.47544e-07 0)
(0 -1.47575e-07 0)
(0 -1.47606e-07 0)
(0 -1.47637e-07 0)
(0 -1.47667e-07 0)
(0 -1.47698e-07 0)
(0 -1.47728e-07 0)
(0 -1.47757e-07 0)
(0 -1.47786e-07 0)
(0 -1.47815e-07 0)
(0 -1.47845e-07 0)
(0 -1.47874e-07 0)
(0 -1.47903e-07 0)
(0 -1.47932e-07 0)
(0 -1.47962e-07 0)
(0 -1.47992e-07 0)
(0 -1.48022e-07 0)
(0 -1.48051e-07 0)
(0 -1.48081e-07 0)
(0 -1.48111e-07 0)
(0 -1.48138e-07 0)
(0 -1.48166e-07 0)
(0 -1.48196e-07 0)
(0 -1.48226e-07 0)
(0 -1.48256e-07 0)
(0 -1.48285e-07 0)
(0 -1.48315e-07 0)
(0 -1.48344e-07 0)
(0 -1.48373e-07 0)
(0 -1.48404e-07 0)
(0 -1.48434e-07 0)
(0 -1.48463e-07 0)
(0 -1.48493e-07 0)
(0 -1.48524e-07 0)
(0 -1.48554e-07 0)
(0 -1.48585e-07 0)
(0 -1.48615e-07 0)
(0 -1.48645e-07 0)
(0 -1.48676e-07 0)
(0 -1.48706e-07 0)
(0 -1.48735e-07 0)
(0 -1.48765e-07 0)
(0 -1.48796e-07 0)
(0 -1.48825e-07 0)
(0 -1.48856e-07 0)
(0 -1.48886e-07 0)
(0 -1.48916e-07 0)
(0 -1.48947e-07 0)
(0 -1.48979e-07 0)
(0 -1.4901e-07 0)
(0 -1.4904e-07 0)
(0 -1.49071e-07 0)
(0 -1.49103e-07 0)
(0 -1.49135e-07 0)
(0 -1.49167e-07 0)
(0 -1.49199e-07 0)
(0 -1.4923e-07 0)
(0 -1.49262e-07 0)
(0 -1.49294e-07 0)
(0 -1.49327e-07 0)
(0 -1.49359e-07 0)
(0 -1.49392e-07 0)
(0 -1.49425e-07 0)
(0 -1.49457e-07 0)
(0 -1.49491e-07 0)
(0 -1.49525e-07 0)
(0 -1.49558e-07 0)
(0 -1.49591e-07 0)
(0 -1.49624e-07 0)
(0 -1.49657e-07 0)
(0 -1.49691e-07 0)
(0 -1.49725e-07 0)
(0 -1.49758e-07 0)
(0 -1.4979e-07 0)
(0 -1.49823e-07 0)
(0 -1.49858e-07 0)
(0 -1.49894e-07 0)
(0 -1.49929e-07 0)
(0 -1.49964e-07 0)
(0 -1.49999e-07 0)
(0 -1.50034e-07 0)
(0 -1.50069e-07 0)
(0 -1.50104e-07 0)
(0 -1.5014e-07 0)
(0 -1.50175e-07 0)
(0 -1.5021e-07 0)
(0 -1.50247e-07 0)
(0 -1.50283e-07 0)
(0 -1.50319e-07 0)
(0 -1.50355e-07 0)
(0 -1.5039e-07 0)
(0 -1.50426e-07 0)
(0 -1.50463e-07 0)
(0 -1.505e-07 0)
(0 -1.50536e-07 0)
(0 -1.50574e-07 0)
(0 -1.50611e-07 0)
(0 -1.50649e-07 0)
(0 -1.50687e-07 0)
(0 -1.50726e-07 0)
(0 -1.50765e-07 0)
(0 -1.50803e-07 0)
(0 -1.50841e-07 0)
(0 -1.50881e-07 0)
(0 -1.50919e-07 0)
(0 -1.50958e-07 0)
(0 -1.50998e-07 0)
(0 -1.51037e-07 0)
(0 -1.51077e-07 0)
(0 -1.51116e-07 0)
(0 -1.51155e-07 0)
(0 -1.51194e-07 0)
(0 -1.51234e-07 0)
(0 -1.51275e-07 0)
(0 -1.51316e-07 0)
(0 -1.51358e-07 0)
(0 -1.51399e-07 0)
(0 -1.51439e-07 0)
(0 -1.51479e-07 0)
(0 -1.5152e-07 0)
(0 -1.5156e-07 0)
(0 -1.516e-07 0)
(0 -1.51641e-07 0)
(0 -1.51682e-07 0)
(0 -1.51724e-07 0)
(0 -1.51765e-07 0)
(0 -1.51807e-07 0)
(0 -1.51849e-07 0)
(0 -1.51892e-07 0)
(0 -1.51934e-07 0)
(0 -1.51977e-07 0)
(0 -1.5202e-07 0)
(0 -1.52063e-07 0)
(0 -1.52106e-07 0)
(0 -1.5215e-07 0)
(0 -1.52194e-07 0)
(0 -1.52237e-07 0)
(0 -1.52281e-07 0)
(0 -1.52326e-07 0)
(0 -1.52371e-07 0)
(0 -1.52415e-07 0)
(0 -1.52459e-07 0)
(0 -1.52504e-07 0)
(0 -1.52548e-07 0)
(0 -1.52594e-07 0)
(0 -1.52639e-07 0)
(0 -1.52685e-07 0)
(0 -1.5273e-07 0)
(0 -1.52776e-07 0)
(0 -1.52822e-07 0)
(0 -1.52868e-07 0)
(0 -1.52916e-07 0)
(0 -1.52962e-07 0)
(0 -1.53008e-07 0)
(0 -1.53054e-07 0)
(0 -1.53102e-07 0)
(0 -1.53149e-07 0)
(0 -1.53195e-07 0)
(0 -1.53242e-07 0)
(0 -1.5329e-07 0)
(0 -1.53338e-07 0)
(0 -1.53385e-07 0)
(0 -1.53433e-07 0)
(0 -1.53482e-07 0)
(0 -1.53531e-07 0)
(0 -1.53579e-07 0)
(0 -1.53627e-07 0)
(0 -1.53675e-07 0)
(0 -1.53725e-07 0)
(0 -1.53775e-07 0)
(0 -1.53824e-07 0)
(0 -1.53873e-07 0)
(0 -1.53922e-07 0)
(0 -1.53972e-07 0)
(0 -1.54021e-07 0)
(0 -1.54071e-07 0)
(0 -1.54123e-07 0)
(0 -1.54173e-07 0)
(0 -1.54224e-07 0)
(0 -1.54276e-07 0)
(0 -1.54327e-07 0)
(0 -1.54376e-07 0)
(0 -1.54426e-07 0)
(0 -1.54478e-07 0)
(0 -1.54528e-07 0)
(0 -1.54578e-07 0)
(0 -1.5463e-07 0)
(0 -1.54683e-07 0)
(0 -1.54734e-07 0)
(0 -1.54785e-07 0)
(0 -1.54836e-07 0)
(0 -1.54887e-07 0)
(0 -1.5494e-07 0)
(0 -1.54993e-07 0)
(0 -1.55047e-07 0)
(0 -1.55101e-07 0)
(0 -1.55155e-07 0)
(0 -1.55208e-07 0)
(0 -1.55262e-07 0)
(0 -1.55317e-07 0)
(0 -1.5537e-07 0)
(0 -1.55424e-07 0)
(0 -1.5548e-07 0)
(0 -1.55535e-07 0)
(0 -1.5559e-07 0)
(0 -1.55644e-07 0)
(0 -1.55698e-07 0)
(0 -1.55753e-07 0)
(0 -1.55808e-07 0)
(0 -1.55863e-07 0)
(0 -1.55918e-07 0)
(0 -1.55973e-07 0)
(0 -1.56028e-07 0)
(0 -1.56084e-07 0)
(0 -1.56139e-07 0)
(0 -1.56194e-07 0)
(0 -1.56249e-07 0)
(0 -1.56305e-07 0)
(0 -1.56361e-07 0)
(0 -1.56417e-07 0)
(0 -1.56473e-07 0)
(0 -1.56529e-07 0)
(0 -1.56586e-07 0)
(0 -1.56644e-07 0)
(0 -1.567e-07 0)
(0 -1.56755e-07 0)
(0 -1.56811e-07 0)
(0 -1.56867e-07 0)
(0 -1.56924e-07 0)
(0 -1.56981e-07 0)
(0 -1.57038e-07 0)
(0 -1.57096e-07 0)
(0 -1.57154e-07 0)
(0 -1.57211e-07 0)
(0 -1.57268e-07 0)
(0 -1.57325e-07 0)
(0 -1.57384e-07 0)
(0 -1.57442e-07 0)
(0 -1.57501e-07 0)
(0 -1.57558e-07 0)
(0 -1.57616e-07 0)
(0 -1.57676e-07 0)
(0 -1.57735e-07 0)
(0 -1.57793e-07 0)
(0 -1.57852e-07 0)
(0 -1.57911e-07 0)
(0 -1.5797e-07 0)
(0 -1.58028e-07 0)
(0 -1.58087e-07 0)
(0 -1.58146e-07 0)
(0 -1.58205e-07 0)
(0 -1.58265e-07 0)
(0 -1.58324e-07 0)
(0 -1.58384e-07 0)
(0 -1.58444e-07 0)
(0 -1.58503e-07 0)
(0 -1.58562e-07 0)
(0 -1.58622e-07 0)
(0 -1.58681e-07 0)
(0 -1.58741e-07 0)
(0 -1.58801e-07 0)
(0 -1.5886e-07 0)
(0 -1.58921e-07 0)
(0 -1.58981e-07 0)
(0 -1.59042e-07 0)
(0 -1.59102e-07 0)
(0 -1.59162e-07 0)
(0 -1.59224e-07 0)
(0 -1.59284e-07 0)
(0 -1.59343e-07 0)
(0 -1.59404e-07 0)
(0 -1.59465e-07 0)
(0 -1.59527e-07 0)
(0 -1.59588e-07 0)
(0 -1.59647e-07 0)
(0 -1.59709e-07 0)
(0 -1.59771e-07 0)
(0 -1.59832e-07 0)
(0 -1.59893e-07 0)
(0 -1.59953e-07 0)
(0 -1.60013e-07 0)
(0 -1.60075e-07 0)
(0 -1.60135e-07 0)
(0 -1.60195e-07 0)
(0 -1.60255e-07 0)
(0 -1.60316e-07 0)
(0 -1.60376e-07 0)
(0 -1.60437e-07 0)
(0 -1.605e-07 0)
(0 -1.60561e-07 0)
(0 -1.60621e-07 0)
(0 -1.60681e-07 0)
(0 -1.60742e-07 0)
(0 -1.60804e-07 0)
(0 -1.60866e-07 0)
(0 -1.60928e-07 0)
(0 -1.6099e-07 0)
(0 -1.61051e-07 0)
(0 -1.61111e-07 0)
(0 -1.61173e-07 0)
(0 -1.61235e-07 0)
(0 -1.61296e-07 0)
(0 -1.61358e-07 0)
(0 -1.61419e-07 0)
(0 -1.61479e-07 0)
(0 -1.61538e-07 0)
(0 -1.61599e-07 0)
(0 -1.61661e-07 0)
(0 -1.61722e-07 0)
(0 -1.61784e-07 0)
(0 -1.61846e-07 0)
(0 -1.61909e-07 0)
(0 -1.61969e-07 0)
(0 -1.62029e-07 0)
(0 -1.6209e-07 0)
(0 -1.62151e-07 0)
(0 -1.62213e-07 0)
(0 -1.62274e-07 0)
(0 -1.62335e-07 0)
(0 -1.62396e-07 0)
(0 -1.62457e-07 0)
(0 -1.62518e-07 0)
(0 -1.62579e-07 0)
(0 -1.6264e-07 0)
(0 -1.62701e-07 0)
(0 -1.62761e-07 0)
(0 -1.62823e-07 0)
(0 -1.62883e-07 0)
(0 -1.62943e-07 0)
(0 -1.63002e-07 0)
(0 -1.63063e-07 0)
(0 -1.63123e-07 0)
(0 -1.63182e-07 0)
(0 -1.63242e-07 0)
(0 -1.63302e-07 0)
(0 -1.63361e-07 0)
(0 -1.6342e-07 0)
(0 -1.63479e-07 0)
(0 -1.63539e-07 0)
(0 -1.63597e-07 0)
(0 -1.63658e-07 0)
(0 -1.63717e-07 0)
(0 -1.63775e-07 0)
(0 -1.63835e-07 0)
(0 -1.63896e-07 0)
(0 -1.63957e-07 0)
(0 -1.64015e-07 0)
(0 -1.64073e-07 0)
(0 -1.64133e-07 0)
(0 -1.64191e-07 0)
(0 -1.64249e-07 0)
(0 -1.64309e-07 0)
(0 -1.64367e-07 0)
(0 -1.64426e-07 0)
(0 -1.64484e-07 0)
(0 -1.64542e-07 0)
(0 -1.646e-07 0)
(0 -1.64657e-07 0)
(0 -1.64715e-07 0)
(0 -1.64772e-07 0)
(0 -1.64832e-07 0)
(0 -1.64891e-07 0)
(0 -1.64947e-07 0)
(0 -1.65004e-07 0)
(0 -1.65062e-07 0)
(0 -1.6512e-07 0)
(0 -1.65177e-07 0)
(0 -1.65234e-07 0)
(0 -1.6529e-07 0)
(0 -1.65346e-07 0)
(0 -1.65401e-07 0)
(0 -1.65458e-07 0)
(0 -1.65514e-07 0)
(0 -1.65569e-07 0)
(0 -1.65626e-07 0)
(0 -1.65682e-07 0)
(0 -1.65736e-07 0)
(0 -1.6579e-07 0)
(0 -1.65845e-07 0)
(0 -1.659e-07 0)
(0 -1.65955e-07 0)
(0 -1.66009e-07 0)
(0 -1.66062e-07 0)
(0 -1.66117e-07 0)
(0 -1.66172e-07 0)
(0 -1.66225e-07 0)
(0 -1.66279e-07 0)
(0 -1.66332e-07 0)
(0 -1.66385e-07 0)
(0 -1.66438e-07 0)
(0 -1.66491e-07 0)
(0 -1.66543e-07 0)
(0 -1.66595e-07 0)
(0 -1.66648e-07 0)
(0 -1.667e-07 0)
(0 -1.6675e-07 0)
(0 -1.668e-07 0)
(0 -1.66852e-07 0)
(0 -1.66903e-07 0)
(0 -1.66954e-07 0)
(0 -1.67004e-07 0)
(0 -1.67053e-07 0)
(0 -1.67103e-07 0)
(0 -1.67153e-07 0)
(0 -1.67203e-07 0)
(0 -1.67253e-07 0)
(0 -1.67302e-07 0)
(0 -1.67352e-07 0)
(0 -1.674e-07 0)
(0 -1.67448e-07 0)
(0 -1.67495e-07 0)
(0 -1.67544e-07 0)
(0 -1.67593e-07 0)
(0 -1.67639e-07 0)
(0 -1.67686e-07 0)
(0 -1.67732e-07 0)
(0 -1.67779e-07 0)
(0 -1.67826e-07 0)
(0 -1.67873e-07 0)
(0 -1.6792e-07 0)
(0 -1.67964e-07 0)
(0 -1.6801e-07 0)
(0 -1.68056e-07 0)
(0 -1.681e-07 0)
(0 -1.68145e-07 0)
(0 -1.6819e-07 0)
(0 -1.68232e-07 0)
(0 -1.68276e-07 0)
(0 -1.68319e-07 0)
(0 -1.68361e-07 0)
(0 -1.68404e-07 0)
(0 -1.68446e-07 0)
(0 -1.68489e-07 0)
(0 -1.68531e-07 0)
(0 -1.68574e-07 0)
(0 -1.68615e-07 0)
(0 -1.68656e-07 0)
(0 -1.68696e-07 0)
(0 -1.68737e-07 0)
(0 -1.68777e-07 0)
(0 -1.68815e-07 0)
(0 -1.68855e-07 0)
(0 -1.68893e-07 0)
(0 -1.68931e-07 0)
(0 -1.68969e-07 0)
(0 -1.69006e-07 0)
(0 -1.69044e-07 0)
(0 -1.69082e-07 0)
(0 -1.69119e-07 0)
(0 -1.69154e-07 0)
(0 -1.6919e-07 0)
(0 -1.69226e-07 0)
(0 -1.69261e-07 0)
(0 -1.69297e-07 0)
(0 -1.69332e-07 0)
(0 -1.69366e-07 0)
(0 -1.69399e-07 0)
(0 -1.69432e-07 0)
(0 -1.69466e-07 0)
(0 -1.69499e-07 0)
(0 -1.69532e-07 0)
(0 -1.69563e-07 0)
(0 -1.69594e-07 0)
(0 -1.69626e-07 0)
(0 -1.69656e-07 0)
(0 -1.69685e-07 0)
(0 -1.69715e-07 0)
(0 -1.69745e-07 0)
(0 -1.69773e-07 0)
(0 -1.69802e-07 0)
(0 -1.6983e-07 0)
(0 -1.69858e-07 0)
(0 -1.69885e-07 0)
(0 -1.69913e-07 0)
(0 -1.69939e-07 0)
(0 -1.69965e-07 0)
(0 -1.6999e-07 0)
(0 -1.70015e-07 0)
(0 -1.70038e-07 0)
(0 -1.70063e-07 0)
(0 -1.70086e-07 0)
(0 -1.70108e-07 0)
(0 -1.70132e-07 0)
(0 -1.70155e-07 0)
(0 -1.70178e-07 0)
(0 -1.70199e-07 0)
(0 -1.7022e-07 0)
(0 -1.7024e-07 0)
(0 -1.7026e-07 0)
(0 -1.7028e-07 0)
(0 -1.70299e-07 0)
(0 -1.70318e-07 0)
(0 -1.70336e-07 0)
(0 -1.70353e-07 0)
(0 -1.70371e-07 0)
(0 -1.70386e-07 0)
(0 -1.70401e-07 0)
(0 -1.70417e-07 0)
(0 -1.70433e-07 0)
(0 -1.70447e-07 0)
(0 -1.7046e-07 0)
(0 -1.70473e-07 0)
(0 -1.70486e-07 0)
(0 -1.70499e-07 0)
(0 -1.7051e-07 0)
(0 -1.7052e-07 0)
(0 -1.70532e-07 0)
(0 -1.70542e-07 0)
(0 -1.70552e-07 0)
(0 -1.70562e-07 0)
(0 -1.70569e-07 0)
(0 -1.70578e-07 0)
(0 -1.70587e-07 0)
(0 -1.70593e-07 0)
(0 -1.706e-07 0)
(0 -1.70606e-07 0)
(0 -1.70612e-07 0)
(0 -1.70618e-07 0)
(0 -1.70622e-07 0)
(0 -1.70626e-07 0)
(0 -1.7063e-07 0)
(0 -1.70632e-07 0)
(0 -1.70634e-07 0)
(0 -1.70635e-07 0)
(0 -1.70636e-07 0)
(0 -1.70637e-07 0)
(0 -1.70637e-07 0)
(0 -1.70636e-07 0)
(0 -1.70635e-07 0)
(0 -1.70633e-07 0)
(0 -1.70631e-07 0)
(0 -1.70627e-07 0)
(0 -1.70624e-07 0)
(0 -1.7062e-07 0)
(0 -1.70615e-07 0)
(0 -1.70611e-07 0)
(0 -1.70605e-07 0)
(0 -1.70599e-07 0)
(0 -1.70592e-07 0)
(0 -1.70584e-07 0)
(0 -1.70575e-07 0)
(0 -1.70566e-07 0)
(0 -1.70554e-07 0)
(0 -1.70544e-07 0)
(0 -1.70533e-07 0)
(0 -1.70521e-07 0)
(0 -1.70508e-07 0)
(0 -1.70495e-07 0)
(0 -1.70483e-07 0)
(0 -1.70469e-07 0)
(0 -1.70453e-07 0)
(0 -1.70435e-07 0)
(0 -1.70419e-07 0)
(0 -1.70403e-07 0)
(0 -1.70387e-07 0)
(0 -1.70368e-07 0)
(0 -1.70351e-07 0)
(0 -1.70333e-07 0)
(0 -1.70311e-07 0)
(0 -1.7029e-07 0)
(0 -1.7027e-07 0)
(0 -1.7025e-07 0)
(0 -1.70226e-07 0)
(0 -1.70202e-07 0)
(0 -1.70179e-07 0)
(0 -1.70152e-07 0)
(0 -1.70124e-07 0)
(0 -1.70098e-07 0)
(0 -1.70074e-07 0)
(0 -1.70049e-07 0)
(0 -1.70019e-07 0)
(0 -1.69991e-07 0)
(0 -1.69964e-07 0)
(0 -1.69933e-07 0)
(0 -1.69899e-07 0)
(0 -1.69867e-07 0)
(0 -1.69834e-07 0)
(0 -1.698e-07 0)
(0 -1.69765e-07 0)
(0 -1.69729e-07 0)
(0 -1.69693e-07 0)
(0 -1.69655e-07 0)
(0 -1.69617e-07 0)
(0 -1.69579e-07 0)
(0 -1.6954e-07 0)
(0 -1.69498e-07 0)
(0 -1.69456e-07 0)
(0 -1.69416e-07 0)
(0 -1.69374e-07 0)
(0 -1.69332e-07 0)
(0 -1.6929e-07 0)
(0 -1.69247e-07 0)
(0 -1.692e-07 0)
(0 -1.69154e-07 0)
(0 -1.69106e-07 0)
(0 -1.69059e-07 0)
(0 -1.69012e-07 0)
(0 -1.68964e-07 0)
(0 -1.68913e-07 0)
(0 -1.68862e-07 0)
(0 -1.6881e-07 0)
(0 -1.68759e-07 0)
(0 -1.68708e-07 0)
(0 -1.68654e-07 0)
(0 -1.68599e-07 0)
(0 -1.68545e-07 0)
(0 -1.68489e-07 0)
(0 -1.68432e-07 0)
(0 -1.68374e-07 0)
(0 -1.68315e-07 0)
(0 -1.68254e-07 0)
(0 -1.68195e-07 0)
(0 -1.68135e-07 0)
(0 -1.68072e-07 0)
(0 -1.68009e-07 0)
(0 -1.67948e-07 0)
(0 -1.67888e-07 0)
(0 -1.67825e-07 0)
(0 -1.6776e-07 0)
(0 -1.67694e-07 0)
(0 -1.67624e-07 0)
(0 -1.67554e-07 0)
(0 -1.67485e-07 0)
(0 -1.67414e-07 0)
(0 -1.67344e-07 0)
(0 -1.67274e-07 0)
(0 -1.67202e-07 0)
(0 -1.67126e-07 0)
(0 -1.67051e-07 0)
(0 -1.66977e-07 0)
(0 -1.66901e-07 0)
(0 -1.66824e-07 0)
(0 -1.66745e-07 0)
(0 -1.66666e-07 0)
(0 -1.66589e-07 0)
(0 -1.66509e-07 0)
(0 -1.66428e-07 0)
(0 -1.66347e-07 0)
(0 -1.66265e-07 0)
(0 -1.66182e-07 0)
(0 -1.66098e-07 0)
(0 -1.66011e-07 0)
(0 -1.65924e-07 0)
(0 -1.65841e-07 0)
(0 -1.65754e-07 0)
(0 -1.65663e-07 0)
(0 -1.65573e-07 0)
(0 -1.65481e-07 0)
(0 -1.65388e-07 0)
(0 -1.65296e-07 0)
(0 -1.65204e-07 0)
(0 -1.65111e-07 0)
(0 -1.65016e-07 0)
(0 -1.64921e-07 0)
(0 -1.64825e-07 0)
(0 -1.64729e-07 0)
(0 -1.64632e-07 0)
(0 -1.64533e-07 0)
(0 -1.64434e-07 0)
(0 -1.64333e-07 0)
(0 -1.64229e-07 0)
(0 -1.64125e-07 0)
(0 -1.64021e-07 0)
(0 -1.63916e-07 0)
(0 -1.63811e-07 0)
(0 -1.63706e-07 0)
(0 -1.63599e-07 0)
(0 -1.63492e-07 0)
(0 -1.63381e-07 0)
(0 -1.63271e-07 0)
(0 -1.63159e-07 0)
(0 -1.63046e-07 0)
(0 -1.62931e-07 0)
(0 -1.62816e-07 0)
(0 -1.62702e-07 0)
(0 -1.62587e-07 0)
(0 -1.62469e-07 0)
(0 -1.62348e-07 0)
(0 -1.62229e-07 0)
(0 -1.62111e-07 0)
(0 -1.61989e-07 0)
(0 -1.61867e-07 0)
(0 -1.61746e-07 0)
(0 -1.61624e-07 0)
(0 -1.615e-07 0)
(0 -1.61375e-07 0)
(0 -1.61247e-07 0)
(0 -1.61118e-07 0)
(0 -1.6099e-07 0)
(0 -1.60862e-07 0)
(0 -1.60732e-07 0)
(0 -1.60598e-07 0)
(0 -1.60465e-07 0)
(0 -1.60334e-07 0)
(0 -1.60201e-07 0)
(0 -1.60064e-07 0)
(0 -1.59928e-07 0)
(0 -1.59791e-07 0)
(0 -1.59652e-07 0)
(0 -1.59515e-07 0)
(0 -1.59376e-07 0)
(0 -1.59235e-07 0)
(0 -1.59094e-07 0)
(0 -1.58952e-07 0)
(0 -1.58808e-07 0)
(0 -1.58659e-07 0)
(0 -1.58512e-07 0)
(0 -1.58365e-07 0)
(0 -1.58217e-07 0)
(0 -1.58067e-07 0)
(0 -1.57915e-07 0)
(0 -1.57765e-07 0)
(0 -1.57613e-07 0)
(0 -1.5746e-07 0)
(0 -1.57305e-07 0)
(0 -1.57149e-07 0)
(0 -1.56993e-07 0)
(0 -1.56837e-07 0)
(0 -1.5668e-07 0)
(0 -1.56523e-07 0)
(0 -1.56365e-07 0)
(0 -1.56205e-07 0)
(0 -1.56042e-07 0)
(0 -1.5588e-07 0)
(0 -1.55715e-07 0)
(0 -1.55548e-07 0)
(0 -1.55383e-07 0)
(0 -1.55218e-07 0)
(0 -1.55048e-07 0)
(0 -1.54878e-07 0)
(0 -1.54709e-07 0)
(0 -1.54537e-07 0)
(0 -1.54361e-07 0)
(0 -1.54187e-07 0)
(0 -1.54013e-07 0)
(0 -1.53837e-07 0)
(0 -1.53661e-07 0)
(0 -1.53486e-07 0)
(0 -1.53308e-07 0)
(0 -1.5313e-07 0)
(0 -1.52949e-07 0)
(0 -1.52766e-07 0)
(0 -1.52584e-07 0)
(0 -1.52401e-07 0)
(0 -1.52216e-07 0)
(0 -1.52033e-07 0)
(0 -1.51847e-07 0)
(0 -1.5166e-07 0)
(0 -1.51471e-07 0)
(0 -1.51283e-07 0)
(0 -1.51093e-07 0)
(0 -1.509e-07 0)
(0 -1.50707e-07 0)
(0 -1.50514e-07 0)
(0 -1.50319e-07 0)
(0 -1.50123e-07 0)
(0 -1.49928e-07 0)
(0 -1.4973e-07 0)
(0 -1.49531e-07 0)
(0 -1.49332e-07 0)
(0 -1.4913e-07 0)
(0 -1.48927e-07 0)
(0 -1.48724e-07 0)
(0 -1.4852e-07 0)
(0 -1.48315e-07 0)
(0 -1.48109e-07 0)
(0 -1.47904e-07 0)
(0 -1.47699e-07 0)
(0 -1.47491e-07 0)
(0 -1.47282e-07 0)
(0 -1.47071e-07 0)
(0 -1.4686e-07 0)
(0 -1.46644e-07 0)
(0 -1.46429e-07 0)
(0 -1.46214e-07 0)
(0 -1.45998e-07 0)
(0 -1.45782e-07 0)
(0 -1.45562e-07 0)
(0 -1.45342e-07 0)
(0 -1.45123e-07 0)
(0 -1.44901e-07 0)
(0 -1.44679e-07 0)
(0 -1.44455e-07 0)
(0 -1.4423e-07 0)
(0 -1.44006e-07 0)
(0 -1.43779e-07 0)
(0 -1.43551e-07 0)
(0 -1.43321e-07 0)
(0 -1.43091e-07 0)
(0 -1.4286e-07 0)
(0 -1.42628e-07 0)
(0 -1.42395e-07 0)
(0 -1.42161e-07 0)
(0 -1.41925e-07 0)
(0 -1.41689e-07 0)
(0 -1.41451e-07 0)
(0 -1.41211e-07 0)
(0 -1.40972e-07 0)
(0 -1.40734e-07 0)
(0 -1.40493e-07 0)
(0 -1.4025e-07 0)
(0 -1.40007e-07 0)
(0 -1.39762e-07 0)
(0 -1.39515e-07 0)
(0 -1.39267e-07 0)
(0 -1.3902e-07 0)
(0 -1.38771e-07 0)
(0 -1.38519e-07 0)
(0 -1.38268e-07 0)
(0 -1.38017e-07 0)
(0 -1.37764e-07 0)
(0 -1.37512e-07 0)
(0 -1.37259e-07 0)
(0 -1.37003e-07 0)
(0 -1.36746e-07 0)
(0 -1.36488e-07 0)
(0 -1.36228e-07 0)
(0 -1.35967e-07 0)
(0 -1.35706e-07 0)
(0 -1.35443e-07 0)
(0 -1.35179e-07 0)
(0 -1.34915e-07 0)
(0 -1.34651e-07 0)
(0 -1.34386e-07 0)
(0 -1.34118e-07 0)
(0 -1.33848e-07 0)
(0 -1.33578e-07 0)
(0 -1.3331e-07 0)
(0 -1.33039e-07 0)
(0 -1.32769e-07 0)
(0 -1.32496e-07 0)
(0 -1.3222e-07 0)
(0 -1.31946e-07 0)
(0 -1.3167e-07 0)
(0 -1.31392e-07 0)
(0 -1.31115e-07 0)
(0 -1.30835e-07 0)
(0 -1.30555e-07 0)
(0 -1.30273e-07 0)
(0 -1.29991e-07 0)
(0 -1.29708e-07 0)
(0 -1.29424e-07 0)
(0 -1.29139e-07 0)
(0 -1.2885e-07 0)
(0 -1.28561e-07 0)
(0 -1.28273e-07 0)
(0 -1.27982e-07 0)
(0 -1.27691e-07 0)
(0 -1.27398e-07 0)
(0 -1.27104e-07 0)
(0 -1.26811e-07 0)
(0 -1.26518e-07 0)
(0 -1.26222e-07 0)
(0 -1.25923e-07 0)
(0 -1.25625e-07 0)
(0 -1.25328e-07 0)
(0 -1.25027e-07 0)
(0 -1.24724e-07 0)
(0 -1.24422e-07 0)
(0 -1.2412e-07 0)
(0 -1.23816e-07 0)
(0 -1.23511e-07 0)
(0 -1.23205e-07 0)
(0 -1.22899e-07 0)
(0 -1.2259e-07 0)
(0 -1.22281e-07 0)
(0 -1.21971e-07 0)
(0 -1.2166e-07 0)
(0 -1.21349e-07 0)
(0 -1.21039e-07 0)
(0 -1.20725e-07 0)
(0 -1.20411e-07 0)
(0 -1.20099e-07 0)
(0 -1.19782e-07 0)
(0 -1.19465e-07 0)
(0 -1.19147e-07 0)
(0 -1.18827e-07 0)
(0 -1.18505e-07 0)
(0 -1.18182e-07 0)
(0 -1.17859e-07 0)
(0 -1.17533e-07 0)
(0 -1.17208e-07 0)
(0 -1.16882e-07 0)
(0 -1.16554e-07 0)
(0 -1.16226e-07 0)
(0 -1.15898e-07 0)
(0 -1.15567e-07 0)
(0 -1.15236e-07 0)
(0 -1.14905e-07 0)
(0 -1.14573e-07 0)
(0 -1.14239e-07 0)
(0 -1.13903e-07 0)
(0 -1.13566e-07 0)
(0 -1.13231e-07 0)
(0 -1.12894e-07 0)
(0 -1.12556e-07 0)
(0 -1.12215e-07 0)
(0 -1.11875e-07 0)
(0 -1.11534e-07 0)
(0 -1.11191e-07 0)
(0 -1.10848e-07 0)
(0 -1.10504e-07 0)
(0 -1.10158e-07 0)
(0 -1.09812e-07 0)
(0 -1.09466e-07 0)
(0 -1.09119e-07 0)
(0 -1.08769e-07 0)
(0 -1.08419e-07 0)
(0 -1.08069e-07 0)
(0 -1.07719e-07 0)
(0 -1.07369e-07 0)
(0 -1.07016e-07 0)
(0 -1.0666e-07 0)
(0 -1.06305e-07 0)
(0 -1.0595e-07 0)
(0 -1.05593e-07 0)
(0 -1.05236e-07 0)
(0 -1.04877e-07 0)
(0 -1.04517e-07 0)
(0 -1.04155e-07 0)
(0 -1.03793e-07 0)
(0 -1.03431e-07 0)
(0 -1.03067e-07 0)
(0 -1.02703e-07 0)
(0 -1.02337e-07 0)
(0 -1.0197e-07 0)
(0 -1.01602e-07 0)
(0 -1.01234e-07 0)
(0 -1.00865e-07 0)
(0 -1.00494e-07 0)
(0 -1.00121e-07 0)
(0 -9.97472e-08 0)
(0 -9.93747e-08 0)
(0 -9.90007e-08 0)
(0 -9.86258e-08 0)
(0 -9.82508e-08 0)
(0 -9.78731e-08 0)
(0 -9.74949e-08 0)
(0 -9.71158e-08 0)
(0 -9.67361e-08 0)
(0 -9.63558e-08 0)
(0 -9.59723e-08 0)
(0 -9.55892e-08 0)
(0 -9.52064e-08 0)
(0 -9.4823e-08 0)
(0 -9.44372e-08 0)
(0 -9.40495e-08 0)
(0 -9.36611e-08 0)
(0 -9.32717e-08 0)
(0 -9.2883e-08 0)
(0 -9.24946e-08 0)
(0 -9.21045e-08 0)
(0 -9.17116e-08 0)
(0 -9.13175e-08 0)
(0 -9.09228e-08 0)
(0 -9.05268e-08 0)
(0 -9.01311e-08 0)
(0 -8.97341e-08 0)
(0 -8.93364e-08 0)
(0 -8.89384e-08 0)
(0 -8.85373e-08 0)
(0 -8.81345e-08 0)
(0 -8.77314e-08 0)
(0 -8.73287e-08 0)
(0 -8.69261e-08 0)
(0 -8.65213e-08 0)
(0 -8.61147e-08 0)
(0 -8.57085e-08 0)
(0 -8.53018e-08 0)
(0 -8.48929e-08 0)
(0 -8.44839e-08 0)
(0 -8.40739e-08 0)
(0 -8.36629e-08 0)
(0 -8.32517e-08 0)
(0 -8.28391e-08 0)
(0 -8.24258e-08 0)
(0 -8.20119e-08 0)
(0 -8.15942e-08 0)
(0 -8.11767e-08 0)
(0 -8.07598e-08 0)
(0 -8.03413e-08 0)
(0 -7.99211e-08 0)
(0 -7.95001e-08 0)
(0 -7.90788e-08 0)
(0 -7.86557e-08 0)
(0 -7.82305e-08 0)
(0 -7.78043e-08 0)
(0 -7.73768e-08 0)
(0 -7.69484e-08 0)
(0 -7.65207e-08 0)
(0 -7.60907e-08 0)
(0 -7.56605e-08 0)
(0 -7.5232e-08 0)
(0 -7.48006e-08 0)
(0 -7.43662e-08 0)
(0 -7.3933e-08 0)
(0 -7.34999e-08 0)
(0 -7.30651e-08 0)
(0 -7.26281e-08 0)
(0 -7.21899e-08 0)
(0 -7.17512e-08 0)
(0 -7.13098e-08 0)
(0 -7.08697e-08 0)
(0 -7.04313e-08 0)
(0 -6.99892e-08 0)
(0 -6.95446e-08 0)
(0 -6.90994e-08 0)
(0 -6.8654e-08 0)
(0 -6.82091e-08 0)
(0 -6.77625e-08 0)
(0 -6.73129e-08 0)
(0 -6.68633e-08 0)
(0 -6.64132e-08 0)
(0 -6.59622e-08 0)
(0 -6.55097e-08 0)
(0 -6.50566e-08 0)
(0 -6.46033e-08 0)
(0 -6.41479e-08 0)
(0 -6.36904e-08 0)
(0 -6.32317e-08 0)
(0 -6.27717e-08 0)
(0 -6.23113e-08 0)
(0 -6.18494e-08 0)
(0 -6.13851e-08 0)
(0 -6.09211e-08 0)
(0 -6.04556e-08 0)
(0 -5.99898e-08 0)
(0 -5.95227e-08 0)
(0 -5.90507e-08 0)
(0 -5.85783e-08 0)
(0 -5.8108e-08 0)
(0 -5.76354e-08 0)
(0 -5.71612e-08 0)
(0 -5.66858e-08 0)
(0 -5.62084e-08 0)
(0 -5.57314e-08 0)
(0 -5.52539e-08 0)
(0 -5.47754e-08 0)
(0 -5.4295e-08 0)
(0 -5.38139e-08 0)
(0 -5.33329e-08 0)
(0 -5.28489e-08 0)
(0 -5.2364e-08 0)
(0 -5.18781e-08 0)
(0 -5.13911e-08 0)
(0 -5.09021e-08 0)
(0 -5.04106e-08 0)
(0 -4.99196e-08 0)
(0 -4.94276e-08 0)
(0 -4.89333e-08 0)
(0 -4.84383e-08 0)
(0 -4.79421e-08 0)
(0 -4.74451e-08 0)
(0 -4.69463e-08 0)
(0 -4.64461e-08 0)
(0 -4.59456e-08 0)
(0 -4.54408e-08 0)
(0 -4.49357e-08 0)
(0 -4.44309e-08 0)
(0 -4.39238e-08 0)
(0 -4.34165e-08 0)
(0 -4.29084e-08 0)
(0 -4.23985e-08 0)
(0 -4.18871e-08 0)
(0 -4.13743e-08 0)
(0 -4.08585e-08 0)
(0 -4.03422e-08 0)
(0 -3.98255e-08 0)
(0 -3.93059e-08 0)
(0 -3.87856e-08 0)
(0 -3.8265e-08 0)
(0 -3.77424e-08 0)
(0 -3.72189e-08 0)
(0 -3.66937e-08 0)
(0 -3.61663e-08 0)
(0 -3.56388e-08 0)
(0 -3.51086e-08 0)
(0 -3.4578e-08 0)
(0 -3.40465e-08 0)
(0 -3.35109e-08 0)
(0 -3.2976e-08 0)
(0 -3.24404e-08 0)
(0 -3.1902e-08 0)
(0 -3.13626e-08 0)
(0 -3.08239e-08 0)
(0 -3.02843e-08 0)
(0 -2.97424e-08 0)
(0 -2.91994e-08 0)
(0 -2.86553e-08 0)
(0 -2.81076e-08 0)
(0 -2.75588e-08 0)
(0 -2.70103e-08 0)
(0 -2.64587e-08 0)
(0 -2.59084e-08 0)
(0 -2.53561e-08 0)
(0 -2.48008e-08 0)
(0 -2.42465e-08 0)
(0 -2.36893e-08 0)
(0 -2.31306e-08 0)
(0 -2.25706e-08 0)
(0 -2.20092e-08 0)
(0 -2.14481e-08 0)
(0 -2.08858e-08 0)
(0 -2.03208e-08 0)
(0 -1.9754e-08 0)
(0 -1.91857e-08 0)
(0 -1.8617e-08 0)
(0 -1.80487e-08 0)
(0 -1.74785e-08 0)
(0 -1.69081e-08 0)
(0 -1.63356e-08 0)
(0 -1.57613e-08 0)
(0 -1.51868e-08 0)
(0 -1.46113e-08 0)
(0 -1.40354e-08 0)
(0 -1.346e-08 0)
(0 -1.28823e-08 0)
(0 -1.2303e-08 0)
(0 -1.1724e-08 0)
(0 -1.11423e-08 0)
(0 -1.05616e-08 0)
(0 -9.98075e-09 0)
(0 -9.39798e-09 0)
(0 -8.81364e-09 0)
(0 -8.2281e-09 0)
(0 -7.64263e-09 0)
(0 -7.05762e-09 0)
(0 -6.47166e-09 0)
(0 -5.88336e-09 0)
(0 -5.2949e-09 0)
(0 -4.70579e-09 0)
(0 -4.1173e-09 0)
(0 -3.5272e-09 0)
(0 -2.93544e-09 0)
(0 -2.34555e-09 0)
(0 -1.75616e-09 0)
(0 -1.16594e-09 0)
(0 -5.74404e-10 0)
(0 1.53321e-11 0)
(0 6.0549e-10 0)
(0 1.19652e-09 0)
(0 1.78886e-09 0)
(0 2.38097e-09 0)
)
;

boundaryField
{
    bottom
    {
        type            fixedValue;
        value           uniform (0 0 0);
    }
    top
    {
        type            fluxCorrectedVelocity;
        phi             phi.gas;
        rho             rho.gas;
        value           uniform (0 2.67568e-09 0);
    }
    walls
    {
        type            fixedValue;
        value           uniform (0 0 0);
    }
}


// ************************************************************************* //
