/*--------------------------------*- C++ -*----------------------------------*\
| =========                 |                                                 |
| \\      /  F ield         | foam-extend: Open Source CFD                    |
|  \\    /   O peration     | Version:     5.0                                |
|   \\  /    A nd           | Web:         http://www.foam-extend.org         |
|    \\/     M anipulation  |                                                 |
\*---------------------------------------------------------------------------*/
FoamFile
{
    version     2.0;
    format      ascii;
    class       volVectorField;
    location    "10000";
    object      U.water;
}
// * * * * * * * * * * * * * * * * * * * * * * * * * * * * * * * * * * * * * //

dimensions      [0 1 -1 0 0 0 0];

internalField   nonuniform List<vector> 
1500
(
(0 -8.03072e-12 0)
(0 -3.1964e-12 0)
(0 -3.47928e-12 0)
(0 -4.77387e-12 0)
(0 8.27829e-14 0)
(0 1.05874e-11 0)
(0 -3.54122e-12 0)
(0 -6.7632e-12 0)
(0 6.01772e-12 0)
(0 -1.78896e-11 0)
(0 -8.09523e-12 0)
(0 7.31596e-12 0)
(0 1.14843e-12 0)
(0 -2.02934e-11 0)
(0 -2.39864e-11 0)
(0 -2.41336e-12 0)
(0 -6.93452e-12 0)
(0 -9.23314e-12 0)
(0 -1.67774e-11 0)
(0 -3.54864e-11 0)
(0 -2.77175e-11 0)
(0 -2.66531e-11 0)
(0 -3.09028e-11 0)
(0 -2.28111e-11 0)
(0 -2.01073e-11 0)
(0 -2.94175e-11 0)
(0 -4.09623e-11 0)
(0 -3.73144e-11 0)
(0 -1.77223e-11 0)
(0 -3.51979e-11 0)
(0 -6.80224e-11 0)
(0 -5.67112e-11 0)
(0 -3.90918e-11 0)
(0 -4.86198e-11 0)
(0 -6.46433e-11 0)
(0 -6.20402e-11 0)
(0 -5.1095e-11 0)
(0 -7.39467e-11 0)
(0 -8.17858e-11 0)
(0 -6.53687e-11 0)
(0 -9.04421e-11 0)
(0 -8.08779e-11 0)
(0 -7.0531e-11 0)
(0 -8.59068e-11 0)
(0 -9.78356e-11 0)
(0 -9.69164e-11 0)
(0 -8.25475e-11 0)
(0 -1.00074e-10 0)
(0 -1.20184e-10 0)
(0 -1.18731e-10 0)
(0 -9.82963e-11 0)
(0 -1.15956e-10 0)
(0 -1.39331e-10 0)
(0 -1.27749e-10 0)
(0 -1.34618e-10 0)
(0 -1.43386e-10 0)
(0 -1.44596e-10 0)
(0 -1.44528e-10 0)
(0 -1.58159e-10 0)
(0 -1.525e-10 0)
(0 -1.45628e-10 0)
(0 -1.79794e-10 0)
(0 -1.86553e-10 0)
(0 -1.72456e-10 0)
(0 -1.83825e-10 0)
(0 -1.99271e-10 0)
(0 -1.89804e-10 0)
(0 -2.01867e-10 0)
(0 -2.14056e-10 0)
(0 -2.13036e-10 0)
(0 -2.17909e-10 0)
(0 -2.19039e-10 0)
(0 -2.30502e-10 0)
(0 -2.43799e-10 0)
(0 -2.4542e-10 0)
(0 -2.53458e-10 0)
(0 -2.67249e-10 0)
(0 -2.57634e-10 0)
(0 -2.70234e-10 0)
(0 -2.92336e-10 0)
(0 -2.79263e-10 0)
(0 -2.84562e-10 0)
(0 -3.0724e-10 0)
(0 -2.94712e-10 0)
(0 -3.0836e-10 0)
(0 -3.19819e-10 0)
(0 -3.352e-10 0)
(0 -3.45142e-10 0)
(0 -3.41194e-10 0)
(0 -3.45359e-10 0)
(0 -3.48067e-10 0)
(0 -3.75975e-10 0)
(0 -3.72639e-10 0)
(0 -3.87443e-10 0)
(0 -3.96044e-10 0)
(0 -3.97002e-10 0)
(0 -4.08231e-10 0)
(0 -4.17341e-10 0)
(0 -4.0703e-10 0)
(0 -4.14972e-10 0)
(0 -4.59731e-10 0)
(0 -4.57401e-10 0)
(0 -4.49781e-10 0)
(0 -4.59744e-10 0)
(0 -4.69869e-10 0)
(0 -4.86132e-10 0)
(0 -5.08071e-10 0)
(0 -4.87056e-10 0)
(0 -4.99961e-10 0)
(0 -5.26329e-10 0)
(0 -5.32964e-10 0)
(0 -5.42148e-10 0)
(0 -5.41347e-10 0)
(0 -5.7583e-10 0)
(0 -5.61788e-10 0)
(0 -5.61395e-10 0)
(0 -5.96422e-10 0)
(0 -6.0222e-10 0)
(0 -6.13769e-10 0)
(0 -6.17562e-10 0)
(0 -6.12092e-10 0)
(0 -6.28174e-10 0)
(0 -6.63717e-10 0)
(0 -6.62216e-10 0)
(0 -6.74444e-10 0)
(0 -6.82806e-10 0)
(0 -6.85761e-10 0)
(0 -6.94531e-10 0)
(0 -7.11055e-10 0)
(0 -7.33922e-10 0)
(0 -7.31085e-10 0)
(0 -7.43982e-10 0)
(0 -7.63247e-10 0)
(0 -7.60723e-10 0)
(0 -7.6233e-10 0)
(0 -7.93663e-10 0)
(0 -8.11027e-10 0)
(0 -8.12806e-10 0)
(0 -8.24806e-10 0)
(0 -8.46329e-10 0)
(0 -8.40571e-10 0)
(0 -8.52966e-10 0)
(0 -8.67088e-10 0)
(0 -9.0081e-10 0)
(0 -8.93758e-10 0)
(0 -8.84614e-10 0)
(0 -9.34414e-10 0)
(0 -9.39448e-10 0)
(0 -9.4232e-10 0)
(0 -9.54903e-10 0)
(0 -9.70726e-10 0)
(0 -9.77408e-10 0)
(0 -9.89788e-10 0)
(0 -1.02437e-09 0)
(0 -1.02892e-09 0)
(0 -1.03735e-09 0)
(0 -1.04491e-09 0)
(0 -1.05383e-09 0)
(0 -1.07458e-09 0)
(0 -1.08235e-09 0)
(0 -1.11485e-09 0)
(0 -1.11625e-09 0)
(0 -1.11257e-09 0)
(0 -1.14947e-09 0)
(0 -1.16679e-09 0)
(0 -1.16317e-09 0)
(0 -1.18082e-09 0)
(0 -1.19861e-09 0)
(0 -1.21083e-09 0)
(0 -1.24431e-09 0)
(0 -1.25048e-09 0)
(0 -1.23947e-09 0)
(0 -1.27328e-09 0)
(0 -1.29146e-09 0)
(0 -1.28087e-09 0)
(0 -1.30352e-09 0)
(0 -1.34536e-09 0)
(0 -1.3389e-09 0)
(0 -1.34985e-09 0)
(0 -1.38426e-09 0)
(0 -1.40131e-09 0)
(0 -1.38905e-09 0)
(0 -1.39275e-09 0)
(0 -1.4338e-09 0)
(0 -1.44936e-09 0)
(0 -1.48037e-09 0)
(0 -1.49402e-09 0)
(0 -1.50557e-09 0)
(0 -1.50173e-09 0)
(0 -1.5121e-09 0)
(0 -1.54775e-09 0)
(0 -1.55582e-09 0)
(0 -1.58565e-09 0)
(0 -1.60219e-09 0)
(0 -1.60258e-09 0)
(0 -1.62479e-09 0)
(0 -1.64149e-09 0)
(0 -1.64643e-09 0)
(0 -1.66134e-09 0)
(0 -1.68993e-09 0)
(0 -1.70678e-09 0)
(0 -1.7415e-09 0)
(0 -1.75434e-09 0)
(0 -1.74787e-09 0)
(0 -1.78294e-09 0)
(0 -1.79988e-09 0)
(0 -1.80567e-09 0)
(0 -1.82521e-09 0)
(0 -1.8349e-09 0)
(0 -1.85281e-09 0)
(0 -1.86878e-09 0)
(0 -1.89825e-09 0)
(0 -1.92809e-09 0)
(0 -1.93617e-09 0)
(0 -1.96189e-09 0)
(0 -1.96055e-09 0)
(0 -1.96539e-09 0)
(0 -2.01917e-09 0)
(0 -2.05277e-09 0)
(0 -2.04191e-09 0)
(0 -2.05662e-09 0)
(0 -2.07132e-09 0)
(0 -2.09213e-09 0)
(0 -2.11906e-09 0)
(0 -2.13024e-09 0)
(0 -2.1471e-09 0)
(0 -2.17048e-09 0)
(0 -2.20547e-09 0)
(0 -2.21449e-09 0)
(0 -2.21442e-09 0)
(0 -2.25792e-09 0)
(0 -2.27883e-09 0)
(0 -2.28293e-09 0)
(0 -2.30311e-09 0)
(0 -2.31276e-09 0)
(0 -2.34461e-09 0)
(0 -2.38042e-09 0)
(0 -2.38666e-09 0)
(0 -2.40306e-09 0)
(0 -2.42707e-09 0)
(0 -2.44596e-09 0)
(0 -2.47178e-09 0)
(0 -2.48515e-09 0)
(0 -2.5156e-09 0)
(0 -2.4942e-09 0)
(0 -1.47573e-09 0)
(0 4.80192e-10 0)
(0 2.45287e-09 0)
(0 4.47138e-09 0)
(0 6.47475e-09 0)
(0 8.50705e-09 0)
(0 1.05444e-08 0)
(0 1.25902e-08 0)
(0 1.46592e-08 0)
(0 1.67204e-08 0)
(0 1.88344e-08 0)
(0 2.09471e-08 0)
(0 2.30492e-08 0)
(0 2.51766e-08 0)
(0 2.73014e-08 0)
(0 2.9432e-08 0)
(0 3.1671e-08 0)
(0 3.38514e-08 0)
(0 3.59976e-08 0)
(0 3.82049e-08 0)
(0 4.04478e-08 0)
(0 4.27131e-08 0)
(0 4.49129e-08 0)
(0 4.71977e-08 0)
(0 4.94502e-08 0)
(0 5.17151e-08 0)
(0 5.40313e-08 0)
(0 5.63442e-08 0)
(0 5.86388e-08 0)
(0 6.0982e-08 0)
(0 6.33788e-08 0)
(0 6.57148e-08 0)
(0 6.80475e-08 0)
(0 7.04572e-08 0)
(0 7.28873e-08 0)
(0 7.53194e-08 0)
(0 7.77906e-08 0)
(0 8.02017e-08 0)
(0 8.25291e-08 0)
(0 8.50635e-08 0)
(0 8.75835e-08 0)
(0 9.00165e-08 0)
(0 9.25946e-08 0)
(0 9.50873e-08 0)
(0 9.7635e-08 0)
(0 1.00181e-07 0)
(0 1.02625e-07 0)
(0 1.05257e-07 0)
(0 1.0798e-07 0)
(0 1.10505e-07 0)
(0 1.12946e-07 0)
(0 1.15642e-07 0)
(0 1.18495e-07 0)
(0 1.20963e-07 0)
(0 1.23557e-07 0)
(0 1.26311e-07 0)
(0 1.28997e-07 0)
(0 1.31708e-07 0)
(0 1.34365e-07 0)
(0 1.37093e-07 0)
(0 1.40025e-07 0)
(0 1.42834e-07 0)
(0 1.45347e-07 0)
(0 1.4804e-07 0)
(0 1.50895e-07 0)
(0 1.53975e-07 0)
(0 1.56692e-07 0)
(0 1.59327e-07 0)
(0 1.62319e-07 0)
(0 1.6525e-07 0)
(0 1.68105e-07 0)
(0 1.70867e-07 0)
(0 1.73783e-07 0)
(0 1.7668e-07 0)
(0 1.79798e-07 0)
(0 1.82835e-07 0)
(0 1.85344e-07 0)
(0 1.88418e-07 0)
(0 1.91689e-07 0)
(0 1.94533e-07 0)
(0 1.97569e-07 0)
(0 2.00433e-07 0)
(0 2.03439e-07 0)
(0 2.06853e-07 0)
(0 2.09677e-07 0)
(0 2.12728e-07 0)
(0 2.15895e-07 0)
(0 2.18979e-07 0)
(0 2.22148e-07 0)
(0 2.25119e-07 0)
(0 2.28413e-07 0)
(0 2.31554e-07 0)
(0 2.34675e-07 0)
(0 2.37975e-07 0)
(0 2.4127e-07 0)
(0 2.44312e-07 0)
(0 2.47335e-07 0)
(0 2.50709e-07 0)
(0 2.54081e-07 0)
(0 2.57287e-07 0)
(0 2.60561e-07 0)
(0 2.6389e-07 0)
(0 2.67187e-07 0)
(0 2.70472e-07 0)
(0 2.73889e-07 0)
(0 2.77138e-07 0)
(0 2.80425e-07 0)
(0 2.8404e-07 0)
(0 2.87438e-07 0)
(0 2.90691e-07 0)
(0 2.94109e-07 0)
(0 2.97579e-07 0)
(0 3.0115e-07 0)
(0 3.04582e-07 0)
(0 3.07942e-07 0)
(0 3.1148e-07 0)
(0 3.14979e-07 0)
(0 3.18335e-07 0)
(0 3.219e-07 0)
(0 3.2553e-07 0)
(0 3.29297e-07 0)
(0 3.32766e-07 0)
(0 3.36168e-07 0)
(0 3.40105e-07 0)
(0 3.43277e-07 0)
(0 3.47242e-07 0)
(0 3.51096e-07 0)
(0 3.54388e-07 0)
(0 3.58132e-07 0)
(0 3.61727e-07 0)
(0 3.65569e-07 0)
(0 3.69008e-07 0)
(0 3.72939e-07 0)
(0 3.76845e-07 0)
(0 3.80558e-07 0)
(0 3.84257e-07 0)
(0 3.87958e-07 0)
(0 3.91855e-07 0)
(0 3.95635e-07 0)
(0 3.99719e-07 0)
(0 4.03534e-07 0)
(0 4.07294e-07 0)
(0 4.11097e-07 0)
(0 4.15131e-07 0)
(0 4.19002e-07 0)
(0 4.22722e-07 0)
(0 4.26889e-07 0)
(0 4.30679e-07 0)
(0 4.34578e-07 0)
(0 4.3885e-07 0)
(0 4.42625e-07 0)
(0 4.46376e-07 0)
(0 4.5083e-07 0)
(0 4.54993e-07 0)
(0 4.586e-07 0)
(0 4.62917e-07 0)
(0 4.67046e-07 0)
(0 4.70903e-07 0)
(0 4.75511e-07 0)
(0 4.79586e-07 0)
(0 4.83175e-07 0)
(0 4.87593e-07 0)
(0 4.91986e-07 0)
(0 4.96033e-07 0)
(0 5.00112e-07 0)
(0 5.0451e-07 0)
(0 5.08739e-07 0)
(0 5.1283e-07 0)
(0 5.17133e-07 0)
(0 5.2164e-07 0)
(0 5.2591e-07 0)
(0 5.30082e-07 0)
(0 5.34715e-07 0)
(0 5.38491e-07 0)
(0 5.4303e-07 0)
(0 5.47883e-07 0)
(0 5.519e-07 0)
(0 5.56202e-07 0)
(0 5.60655e-07 0)
(0 5.65287e-07 0)
(0 5.69587e-07 0)
(0 5.74168e-07 0)
(0 5.78772e-07 0)
(0 5.82829e-07 0)
(0 5.87469e-07 0)
(0 5.92365e-07 0)
(0 5.9702e-07 0)
(0 6.01529e-07 0)
(0 6.05891e-07 0)
(0 6.10397e-07 0)
(0 6.15075e-07 0)
(0 6.19573e-07 0)
(0 6.24158e-07 0)
(0 6.29109e-07 0)
(0 6.34004e-07 0)
(0 6.38398e-07 0)
(0 6.4311e-07 0)
(0 6.47984e-07 0)
(0 6.52564e-07 0)
(0 6.5722e-07 0)
(0 6.62025e-07 0)
(0 6.66797e-07 0)
(0 6.71732e-07 0)
(0 6.76864e-07 0)
(0 6.81342e-07 0)
(0 6.86235e-07 0)
(0 6.91339e-07 0)
(0 6.96047e-07 0)
(0 7.01008e-07 0)
(0 7.05856e-07 0)
(0 7.10765e-07 0)
(0 7.15944e-07 0)
(0 7.20703e-07 0)
(0 7.25573e-07 0)
(0 7.30995e-07 0)
(0 7.35787e-07 0)
(0 7.40809e-07 0)
(0 7.45814e-07 0)
(0 7.5087e-07 0)
(0 7.56279e-07 0)
(0 7.61102e-07 0)
(0 7.66144e-07 0)
(0 7.71512e-07 0)
(0 7.76635e-07 0)
(0 7.81807e-07 0)
(0 7.87198e-07 0)
(0 7.92389e-07 0)
(0 7.97379e-07 0)
(0 8.02425e-07 0)
(0 8.07979e-07 0)
(0 8.13458e-07 0)
(0 8.18508e-07 0)
(0 8.23744e-07 0)
(0 8.29382e-07 0)
(0 8.34642e-07 0)
(0 8.39835e-07 0)
(0 8.45431e-07 0)
(0 8.50711e-07 0)
(0 8.56217e-07 0)
(0 8.61716e-07 0)
(0 8.66902e-07 0)
(0 8.72598e-07 0)
(0 8.78163e-07 0)
(0 8.8351e-07 0)
(0 8.89152e-07 0)
(0 8.94822e-07 0)
(0 9.00218e-07 0)
(0 9.05697e-07 0)
(0 9.11426e-07 0)
(0 9.17188e-07 0)
(0 9.22737e-07 0)
(0 9.28282e-07 0)
(0 9.34102e-07 0)
(0 9.39702e-07 0)
(0 9.45362e-07 0)
(0 9.51265e-07 0)
(0 9.57011e-07 0)
(0 9.62734e-07 0)
(0 9.68316e-07 0)
(0 9.7433e-07 0)
(0 9.80351e-07 0)
(0 9.85927e-07 0)
(0 9.91908e-07 0)
(0 9.97727e-07 0)
(0 1.00364e-06 0)
(0 1.00955e-06 0)
(0 1.01559e-06 0)
(0 1.02138e-06 0)
(0 1.02726e-06 0)
(0 1.03364e-06 0)
(0 1.03959e-06 0)
(0 1.04552e-06 0)
(0 1.05135e-06 0)
(0 1.05761e-06 0)
(0 1.06405e-06 0)
(0 1.06991e-06 0)
(0 1.07579e-06 0)
(0 1.08198e-06 0)
(0 1.08832e-06 0)
(0 1.09472e-06 0)
(0 1.10087e-06 0)
(0 1.10671e-06 0)
(0 1.11313e-06 0)
(0 1.11962e-06 0)
(0 1.12574e-06 0)
(0 1.13186e-06 0)
(0 1.13848e-06 0)
(0 1.14492e-06 0)
(0 1.15104e-06 0)
(0 1.1575e-06 0)
(0 1.16391e-06 0)
(0 1.17035e-06 0)
(0 1.1765e-06 0)
(0 1.18325e-06 0)
(0 1.18984e-06 0)
(0 1.19611e-06 0)
(0 1.20291e-06 0)
(0 1.20948e-06 0)
(0 1.21582e-06 0)
(0 1.22238e-06 0)
(0 1.22905e-06 0)
(0 1.23575e-06 0)
(0 1.2426e-06 0)
(0 1.2493e-06 0)
(0 1.25579e-06 0)
(0 1.26255e-06 0)
(0 1.26935e-06 0)
(0 1.27581e-06 0)
(0 1.28259e-06 0)
(0 1.28966e-06 0)
(0 1.29648e-06 0)
(0 1.30313e-06 0)
(0 1.30999e-06 0)
(0 1.31692e-06 0)
(0 1.32394e-06 0)
(0 1.33085e-06 0)
(0 1.33767e-06 0)
(0 1.34477e-06 0)
(0 1.3516e-06 0)
(0 1.35865e-06 0)
(0 1.36575e-06 0)
(0 1.37272e-06 0)
(0 1.37976e-06 0)
(0 1.38698e-06 0)
(0 1.3942e-06 0)
(0 1.40116e-06 0)
(0 1.40836e-06 0)
(0 1.41555e-06 0)
(0 1.42293e-06 0)
(0 1.42999e-06 0)
(0 1.43701e-06 0)
(0 1.44456e-06 0)
(0 1.45178e-06 0)
(0 1.45928e-06 0)
(0 1.4666e-06 0)
(0 1.47359e-06 0)
(0 1.4811e-06 0)
(0 1.48865e-06 0)
(0 1.49607e-06 0)
(0 1.50345e-06 0)
(0 1.51098e-06 0)
(0 1.51841e-06 0)
(0 1.52611e-06 0)
(0 1.53367e-06 0)
(0 1.54086e-06 0)
(0 1.54857e-06 0)
(0 1.55625e-06 0)
(0 1.56395e-06 0)
(0 1.57161e-06 0)
(0 1.57914e-06 0)
(0 1.58669e-06 0)
(0 1.59454e-06 0)
(0 1.60276e-06 0)
(0 1.61012e-06 0)
(0 1.61774e-06 0)
(0 1.62581e-06 0)
(0 1.63351e-06 0)
(0 1.6415e-06 0)
(0 1.64925e-06 0)
(0 1.65716e-06 0)
(0 1.66508e-06 0)
(0 1.67304e-06 0)
(0 1.68109e-06 0)
(0 1.68906e-06 0)
(0 1.6972e-06 0)
(0 1.70512e-06 0)
(0 1.71323e-06 0)
(0 1.72121e-06 0)
(0 1.72933e-06 0)
(0 1.73752e-06 0)
(0 1.7457e-06 0)
(0 1.75394e-06 0)
(0 1.76213e-06 0)
(0 1.77042e-06 0)
(0 1.77857e-06 0)
(0 1.78697e-06 0)
(0 1.79526e-06 0)
(0 1.80352e-06 0)
(0 1.81206e-06 0)
(0 1.82019e-06 0)
(0 1.8285e-06 0)
(0 1.83711e-06 0)
(0 1.84564e-06 0)
(0 1.85419e-06 0)
(0 1.86242e-06 0)
(0 1.87082e-06 0)
(0 1.87976e-06 0)
(0 1.88847e-06 0)
(0 1.89664e-06 0)
(0 1.90529e-06 0)
(0 1.91401e-06 0)
(0 1.92273e-06 0)
(0 1.93165e-06 0)
(0 1.94007e-06 0)
(0 1.94875e-06 0)
(0 1.9577e-06 0)
(0 1.96648e-06 0)
(0 1.97538e-06 0)
(0 1.98433e-06 0)
(0 1.99313e-06 0)
(0 2.00185e-06 0)
(0 2.01081e-06 0)
(0 2.01989e-06 0)
(0 2.02891e-06 0)
(0 2.03793e-06 0)
(0 2.04683e-06 0)
(0 2.05587e-06 0)
(0 2.06498e-06 0)
(0 2.07406e-06 0)
(0 2.08304e-06 0)
(0 2.09258e-06 0)
(0 2.1017e-06 0)
(0 2.1105e-06 0)
(0 2.12001e-06 0)
(0 2.12928e-06 0)
(0 2.13843e-06 0)
(0 2.14776e-06 0)
(0 2.1573e-06 0)
(0 2.1667e-06 0)
(0 2.17595e-06 0)
(0 2.18532e-06 0)
(0 2.19482e-06 0)
(0 2.20431e-06 0)
(0 2.21354e-06 0)
(0 2.22315e-06 0)
(0 2.2329e-06 0)
(0 2.24247e-06 0)
(0 2.25204e-06 0)
(0 2.26153e-06 0)
(0 2.27128e-06 0)
(0 2.28097e-06 0)
(0 2.29074e-06 0)
(0 2.30041e-06 0)
(0 2.31001e-06 0)
(0 2.32013e-06 0)
(0 2.32983e-06 0)
(0 2.33958e-06 0)
(0 2.34947e-06 0)
(0 2.35928e-06 0)
(0 2.3692e-06 0)
(0 2.37921e-06 0)
(0 2.38933e-06 0)
(0 2.39912e-06 0)
(0 2.40913e-06 0)
(0 2.41935e-06 0)
(0 2.42949e-06 0)
(0 2.43938e-06 0)
(0 2.44947e-06 0)
(0 2.45983e-06 0)
(0 2.46995e-06 0)
(0 2.48015e-06 0)
(0 2.49063e-06 0)
(0 2.50078e-06 0)
(0 2.5109e-06 0)
(0 2.52146e-06 0)
(0 2.53178e-06 0)
(0 2.54214e-06 0)
(0 2.55234e-06 0)
(0 2.56284e-06 0)
(0 2.57355e-06 0)
(0 2.58381e-06 0)
(0 2.59442e-06 0)
(0 2.60507e-06 0)
(0 2.61554e-06 0)
(0 2.62621e-06 0)
(0 2.63681e-06 0)
(0 2.64745e-06 0)
(0 2.65818e-06 0)
(0 2.66886e-06 0)
(0 2.67955e-06 0)
(0 2.69041e-06 0)
(0 2.70145e-06 0)
(0 2.71209e-06 0)
(0 2.72275e-06 0)
(0 2.73374e-06 0)
(0 2.74484e-06 0)
(0 2.75573e-06 0)
(0 2.76664e-06 0)
(0 2.77754e-06 0)
(0 2.78853e-06 0)
(0 2.7997e-06 0)
(0 2.81077e-06 0)
(0 2.82205e-06 0)
(0 2.83312e-06 0)
(0 2.84419e-06 0)
(0 2.85558e-06 0)
(0 2.86676e-06 0)
(0 2.87781e-06 0)
(0 2.88911e-06 0)
(0 2.90062e-06 0)
(0 2.912e-06 0)
(0 2.9233e-06 0)
(0 2.93461e-06 0)
(0 2.94607e-06 0)
(0 2.95775e-06 0)
(0 2.96915e-06 0)
(0 2.98051e-06 0)
(0 2.99215e-06 0)
(0 3.00382e-06 0)
(0 3.0153e-06 0)
(0 3.02691e-06 0)
(0 3.03858e-06 0)
(0 3.05038e-06 0)
(0 3.06203e-06 0)
(0 3.07381e-06 0)
(0 3.08567e-06 0)
(0 3.09727e-06 0)
(0 3.10917e-06 0)
(0 3.1212e-06 0)
(0 3.13304e-06 0)
(0 3.145e-06 0)
(0 3.15696e-06 0)
(0 3.16883e-06 0)
(0 3.18089e-06 0)
(0 3.19307e-06 0)
(0 3.20509e-06 0)
(0 3.21714e-06 0)
(0 3.22932e-06 0)
(0 3.2415e-06 0)
(0 3.25369e-06 0)
(0 3.26583e-06 0)
(0 3.27813e-06 0)
(0 3.29052e-06 0)
(0 3.30276e-06 0)
(0 3.31501e-06 0)
(0 3.32741e-06 0)
(0 3.33984e-06 0)
(0 3.35242e-06 0)
(0 3.36493e-06 0)
(0 3.37736e-06 0)
(0 3.38975e-06 0)
(0 3.40229e-06 0)
(0 3.41501e-06 0)
(0 3.42752e-06 0)
(0 3.44021e-06 0)
(0 3.45305e-06 0)
(0 3.46556e-06 0)
(0 3.47825e-06 0)
(0 3.4912e-06 0)
(0 3.50379e-06 0)
(0 3.51668e-06 0)
(0 3.52974e-06 0)
(0 3.54245e-06 0)
(0 3.55546e-06 0)
(0 3.56841e-06 0)
(0 3.58128e-06 0)
(0 3.59429e-06 0)
(0 3.60733e-06 0)
(0 3.62037e-06 0)
(0 3.63355e-06 0)
(0 3.64672e-06 0)
(0 3.65979e-06 0)
(0 3.67306e-06 0)
(0 3.68624e-06 0)
(0 3.69952e-06 0)
(0 3.71275e-06 0)
(0 3.72609e-06 0)
(0 3.7395e-06 0)
(0 3.75285e-06 0)
(0 3.76614e-06 0)
(0 3.77953e-06 0)
(0 3.79315e-06 0)
(0 3.80672e-06 0)
(0 3.82017e-06 0)
(0 3.83369e-06 0)
(0 3.84728e-06 0)
(0 3.86073e-06 0)
(0 3.87447e-06 0)
(0 3.88835e-06 0)
(0 3.90201e-06 0)
(0 3.91568e-06 0)
(0 3.92947e-06 0)
(0 3.94319e-06 0)
(0 3.95715e-06 0)
(0 3.97105e-06 0)
(0 3.98483e-06 0)
(0 3.99869e-06 0)
(0 4.01277e-06 0)
(0 4.02677e-06 0)
(0 4.0407e-06 0)
(0 4.05482e-06 0)
(0 4.06894e-06 0)
(0 4.08297e-06 0)
(0 4.09714e-06 0)
(0 4.11137e-06 0)
(0 4.1254e-06 0)
(0 4.13968e-06 0)
(0 4.15407e-06 0)
(0 4.16827e-06 0)
(0 4.18254e-06 0)
(0 4.19706e-06 0)
(0 4.21135e-06 0)
(0 4.22576e-06 0)
(0 4.24036e-06 0)
(0 4.25478e-06 0)
(0 4.26924e-06 0)
(0 4.28379e-06 0)
(0 4.29836e-06 0)
(0 4.31283e-06 0)
(0 4.32757e-06 0)
(0 4.34239e-06 0)
(0 4.35695e-06 0)
(0 4.37159e-06 0)
(0 4.38647e-06 0)
(0 4.40134e-06 0)
(0 4.41605e-06 0)
(0 4.43078e-06 0)
(0 4.44577e-06 0)
(0 4.46078e-06 0)
(0 4.47574e-06 0)
(0 4.49064e-06 0)
(0 4.50561e-06 0)
(0 4.52078e-06 0)
(0 4.53579e-06 0)
(0 4.55082e-06 0)
(0 4.56586e-06 0)
(0 4.58111e-06 0)
(0 4.59649e-06 0)
(0 4.61159e-06 0)
(0 4.62685e-06 0)
(0 4.64214e-06 0)
(0 4.65735e-06 0)
(0 4.67294e-06 0)
(0 4.68827e-06 0)
(0 4.7034e-06 0)
(0 4.71893e-06 0)
(0 4.73451e-06 0)
(0 4.75002e-06 0)
(0 4.76555e-06 0)
(0 4.78099e-06 0)
(0 4.79667e-06 0)
(0 4.8123e-06 0)
(0 4.82792e-06 0)
(0 4.84377e-06 0)
(0 4.85933e-06 0)
(0 4.87512e-06 0)
(0 4.89091e-06 0)
(0 4.90667e-06 0)
(0 4.9226e-06 0)
(0 4.93847e-06 0)
(0 4.95442e-06 0)
(0 4.97022e-06 0)
(0 4.98618e-06 0)
(0 5.00226e-06 0)
(0 5.0183e-06 0)
(0 5.03437e-06 0)
(0 5.05045e-06 0)
(0 5.06653e-06 0)
(0 5.08268e-06 0)
(0 5.09885e-06 0)
(0 5.11506e-06 0)
(0 5.13138e-06 0)
(0 5.14759e-06 0)
(0 5.16383e-06 0)
(0 5.18028e-06 0)
(0 5.19665e-06 0)
(0 5.21295e-06 0)
(0 5.22944e-06 0)
(0 5.24594e-06 0)
(0 5.26244e-06 0)
(0 5.27886e-06 0)
(0 5.29532e-06 0)
(0 5.31201e-06 0)
(0 5.32879e-06 0)
(0 5.34537e-06 0)
(0 5.36195e-06 0)
(0 5.37863e-06 0)
(0 5.39553e-06 0)
(0 5.41221e-06 0)
(0 5.42878e-06 0)
(0 5.4458e-06 0)
(0 5.46282e-06 0)
(0 5.47954e-06 0)
(0 5.49629e-06 0)
(0 5.5134e-06 0)
(0 5.53045e-06 0)
(0 5.54731e-06 0)
(0 5.56424e-06 0)
(0 5.5816e-06 0)
(0 5.5989e-06 0)
(0 5.61575e-06 0)
(0 5.63267e-06 0)
(0 5.65017e-06 0)
(0 5.66737e-06 0)
(0 5.68437e-06 0)
(0 5.70174e-06 0)
(0 5.7192e-06 0)
(0 5.7365e-06 0)
(0 5.75375e-06 0)
(0 5.77125e-06 0)
(0 5.78865e-06 0)
(0 5.80614e-06 0)
(0 5.82358e-06 0)
(0 5.84118e-06 0)
(0 5.85888e-06 0)
(0 5.87619e-06 0)
(0 5.89377e-06 0)
(0 5.9116e-06 0)
(0 5.92932e-06 0)
(0 5.94694e-06 0)
(0 5.96459e-06 0)
(0 5.98263e-06 0)
(0 6.0003e-06 0)
(0 6.0178e-06 0)
(0 6.03581e-06 0)
(0 6.05377e-06 0)
(0 6.07174e-06 0)
(0 6.08982e-06 0)
(0 6.10759e-06 0)
(0 6.12544e-06 0)
(0 6.14353e-06 0)
(0 6.16169e-06 0)
(0 6.17979e-06 0)
(0 6.19799e-06 0)
(0 6.21606e-06 0)
(0 6.23407e-06 0)
(0 6.25244e-06 0)
(0 6.27058e-06 0)
(0 6.28888e-06 0)
(0 6.30728e-06 0)
(0 6.32538e-06 0)
(0 6.34379e-06 0)
(0 6.36248e-06 0)
(0 6.38074e-06 0)
(0 6.399e-06 0)
(0 6.41758e-06 0)
(0 6.43631e-06 0)
(0 6.45477e-06 0)
(0 6.473e-06 0)
(0 6.49168e-06 0)
(0 6.51041e-06 0)
(0 6.52886e-06 0)
(0 6.54757e-06 0)
(0 6.56645e-06 0)
(0 6.58511e-06 0)
(0 6.6039e-06 0)
(0 6.62266e-06 0)
(0 6.64146e-06 0)
(0 6.66023e-06 0)
(0 6.67917e-06 0)
(0 6.69827e-06 0)
(0 6.71701e-06 0)
(0 6.7358e-06 0)
(0 6.75492e-06 0)
(0 6.77418e-06 0)
(0 6.79318e-06 0)
(0 6.81197e-06 0)
(0 6.83111e-06 0)
(0 6.85039e-06 0)
(0 6.86952e-06 0)
(0 6.88868e-06 0)
(0 6.90789e-06 0)
(0 6.92702e-06 0)
(0 6.94648e-06 0)
(0 6.96597e-06 0)
(0 6.98491e-06 0)
(0 7.00426e-06 0)
(0 7.02386e-06 0)
(0 7.04319e-06 0)
(0 7.06263e-06 0)
(0 7.0822e-06 0)
(0 7.10169e-06 0)
(0 7.12109e-06 0)
(0 7.14062e-06 0)
(0 7.16019e-06 0)
(0 7.17981e-06 0)
(0 7.19957e-06 0)
(0 7.21912e-06 0)
(0 7.23877e-06 0)
(0 7.2586e-06 0)
(0 7.27823e-06 0)
(0 7.29789e-06 0)
(0 7.31784e-06 0)
(0 7.3378e-06 0)
(0 7.35755e-06 0)
(0 7.37753e-06 0)
(0 7.39735e-06 0)
(0 7.41718e-06 0)
(0 7.43724e-06 0)
(0 7.4572e-06 0)
(0 7.47721e-06 0)
(0 7.49715e-06 0)
(0 7.51731e-06 0)
(0 7.53736e-06 0)
(0 7.55757e-06 0)
(0 7.5778e-06 0)
(0 7.59782e-06 0)
(0 7.61794e-06 0)
(0 7.63818e-06 0)
(0 7.6587e-06 0)
(0 7.67893e-06 0)
(0 7.69901e-06 0)
(0 7.71946e-06 0)
(0 7.73995e-06 0)
(0 7.76028e-06 0)
(0 7.78064e-06 0)
(0 7.80108e-06 0)
(0 7.82135e-06 0)
(0 7.84192e-06 0)
(0 7.86267e-06 0)
(0 7.88314e-06 0)
(0 7.90358e-06 0)
(0 7.92405e-06 0)
(0 7.94489e-06 0)
(0 7.9656e-06 0)
(0 7.98613e-06 0)
(0 8.0068e-06 0)
(0 8.02762e-06 0)
(0 8.04835e-06 0)
(0 8.06899e-06 0)
(0 8.08995e-06 0)
(0 8.11075e-06 0)
(0 8.13151e-06 0)
(0 8.15247e-06 0)
(0 8.17328e-06 0)
(0 8.19412e-06 0)
(0 8.21501e-06 0)
(0 8.23617e-06 0)
(0 8.25727e-06 0)
(0 8.27817e-06 0)
(0 8.29908e-06 0)
(0 8.32031e-06 0)
(0 8.34155e-06 0)
(0 8.36244e-06 0)
(0 8.38359e-06 0)
(0 8.40474e-06 0)
(0 8.42598e-06 0)
(0 8.44735e-06 0)
(0 8.46845e-06 0)
(0 8.48978e-06 0)
(0 8.51101e-06 0)
(0 8.53226e-06 0)
(0 8.55368e-06 0)
(0 8.57496e-06 0)
(0 8.59636e-06 0)
(0 8.61776e-06 0)
(0 8.63915e-06 0)
(0 8.66079e-06 0)
(0 8.68225e-06 0)
(0 8.70352e-06 0)
(0 8.72514e-06 0)
(0 8.7468e-06 0)
(0 8.76819e-06 0)
(0 8.78975e-06 0)
(0 8.81152e-06 0)
(0 8.83319e-06 0)
(0 8.8547e-06 0)
(0 8.87653e-06 0)
(0 8.89839e-06 0)
(0 8.91986e-06 0)
(0 8.94157e-06 0)
(0 8.96343e-06 0)
(0 8.98513e-06 0)
(0 9.00706e-06 0)
(0 9.02888e-06 0)
(0 9.05071e-06 0)
(0 9.07268e-06 0)
(0 9.0945e-06 0)
(0 9.11651e-06 0)
(0 9.13828e-06 0)
(0 9.16035e-06 0)
(0 9.18233e-06 0)
(0 9.20416e-06 0)
(0 9.22641e-06 0)
(0 9.24842e-06 0)
(0 9.27044e-06 0)
(0 9.29269e-06 0)
(0 9.3148e-06 0)
(0 9.33671e-06 0)
(0 9.35895e-06 0)
(0 9.38126e-06 0)
(0 9.40333e-06 0)
(0 9.42554e-06 0)
(0 9.44773e-06 0)
(0 9.47016e-06 0)
(0 9.49243e-06 0)
(0 9.51459e-06 0)
(0 9.53702e-06 0)
(0 9.55941e-06 0)
(0 9.58163e-06 0)
(0 9.60394e-06 0)
(0 9.62646e-06 0)
(0 9.64875e-06 0)
(0 9.67113e-06 0)
(0 9.69376e-06 0)
(0 9.71619e-06 0)
(0 9.73859e-06 0)
(0 9.76126e-06 0)
(0 9.78364e-06 0)
(0 9.80622e-06 0)
(0 9.82891e-06 0)
(0 9.85131e-06 0)
(0 9.87392e-06 0)
(0 9.89652e-06 0)
(0 9.91925e-06 0)
(0 9.94188e-06 0)
(0 9.96449e-06 0)
(0 9.98719e-06 0)
(0 1.00099e-05 0)
(0 1.00326e-05 0)
(0 1.00553e-05 0)
(0 1.00781e-05 0)
(0 1.01009e-05 0)
(0 1.01236e-05 0)
(0 1.01464e-05 0)
(0 1.01693e-05 0)
(0 1.0192e-05 0)
(0 1.02148e-05 0)
(0 1.02378e-05 0)
(0 1.02607e-05 0)
(0 1.02835e-05 0)
(0 1.03065e-05 0)
(0 1.03293e-05 0)
(0 1.03521e-05 0)
(0 1.03752e-05 0)
(0 1.03982e-05 0)
(0 1.04212e-05 0)
(0 1.04441e-05 0)
(0 1.04671e-05 0)
(0 1.04902e-05 0)
(0 1.05132e-05 0)
(0 1.05362e-05 0)
(0 1.05594e-05 0)
(0 1.05824e-05 0)
(0 1.06053e-05 0)
(0 1.06286e-05 0)
(0 1.06516e-05 0)
(0 1.06747e-05 0)
(0 1.06978e-05 0)
(0 1.07209e-05 0)
(0 1.07442e-05 0)
(0 1.07672e-05 0)
(0 1.07905e-05 0)
(0 1.08138e-05 0)
(0 1.08368e-05 0)
(0 1.08599e-05 0)
(0 1.08831e-05 0)
(0 1.09065e-05 0)
(0 1.09298e-05 0)
(0 1.09529e-05 0)
(0 1.09761e-05 0)
(0 1.09993e-05 0)
(0 1.10224e-05 0)
(0 1.10459e-05 0)
(0 1.10691e-05 0)
(0 1.10924e-05 0)
(0 1.11157e-05 0)
(0 1.1139e-05 0)
(0 1.11622e-05 0)
(0 1.11856e-05 0)
(0 1.12089e-05 0)
(0 1.12322e-05 0)
(0 1.12555e-05 0)
(0 1.12788e-05 0)
(0 1.1302e-05 0)
(0 1.13254e-05 0)
(0 1.13488e-05 0)
(0 1.13721e-05 0)
(0 1.13954e-05 0)
(0 1.14188e-05 0)
(0 1.14421e-05 0)
(0 1.14655e-05 0)
(0 1.14889e-05 0)
(0 1.1512e-05 0)
(0 1.15353e-05 0)
(0 1.15589e-05 0)
(0 1.15822e-05 0)
(0 1.16054e-05 0)
(0 1.16287e-05 0)
(0 1.16521e-05 0)
(0 1.16754e-05 0)
(0 1.16987e-05 0)
(0 1.1722e-05 0)
(0 1.17454e-05 0)
(0 1.17687e-05 0)
(0 1.17919e-05 0)
(0 1.18153e-05 0)
(0 1.18386e-05 0)
(0 1.18618e-05 0)
(0 1.18851e-05 0)
(0 1.19084e-05 0)
(0 1.19316e-05 0)
(0 1.19549e-05 0)
(0 1.19782e-05 0)
(0 1.20013e-05 0)
(0 1.20245e-05 0)
(0 1.20477e-05 0)
(0 1.20709e-05 0)
(0 1.20941e-05 0)
(0 1.21172e-05 0)
(0 1.21403e-05 0)
(0 1.21634e-05 0)
(0 1.21867e-05 0)
(0 1.22098e-05 0)
(0 1.22328e-05 0)
(0 1.22558e-05 0)
(0 1.22789e-05 0)
(0 1.23019e-05 0)
(0 1.23248e-05 0)
(0 1.23478e-05 0)
(0 1.23708e-05 0)
(0 1.23937e-05 0)
(0 1.24165e-05 0)
(0 1.24395e-05 0)
(0 1.24624e-05 0)
(0 1.24851e-05 0)
(0 1.25079e-05 0)
(0 1.25306e-05 0)
(0 1.25534e-05 0)
(0 1.25762e-05 0)
(0 1.25986e-05 0)
(0 1.26214e-05 0)
(0 1.2644e-05 0)
(0 1.26664e-05 0)
(0 1.2689e-05 0)
(0 1.27115e-05 0)
(0 1.27339e-05 0)
(0 1.27562e-05 0)
(0 1.27786e-05 0)
(0 1.2801e-05 0)
(0 1.28232e-05 0)
(0 1.28454e-05 0)
(0 1.28675e-05 0)
(0 1.28896e-05 0)
(0 1.29117e-05 0)
(0 1.29338e-05 0)
(0 1.29556e-05 0)
(0 1.29775e-05 0)
(0 1.29993e-05 0)
(0 1.30211e-05 0)
(0 1.30428e-05 0)
(0 1.30644e-05 0)
(0 1.30861e-05 0)
(0 1.31075e-05 0)
(0 1.3129e-05 0)
(0 1.31504e-05 0)
(0 1.31717e-05 0)
(0 1.31929e-05 0)
(0 1.3214e-05 0)
(0 1.32351e-05 0)
(0 1.3256e-05 0)
(0 1.32769e-05 0)
(0 1.32978e-05 0)
(0 1.33186e-05 0)
(0 1.33392e-05 0)
(0 1.33597e-05 0)
(0 1.33801e-05 0)
(0 1.34004e-05 0)
(0 1.34207e-05 0)
(0 1.34409e-05 0)
(0 1.34608e-05 0)
(0 1.34808e-05 0)
(0 1.35006e-05 0)
(0 1.35203e-05 0)
(0 1.35399e-05 0)
(0 1.35594e-05 0)
(0 1.35787e-05 0)
(0 1.35978e-05 0)
(0 1.36169e-05 0)
(0 1.36359e-05 0)
(0 1.36548e-05 0)
(0 1.36734e-05 0)
(0 1.36919e-05 0)
(0 1.37101e-05 0)
(0 1.37284e-05 0)
(0 1.37465e-05 0)
(0 1.37644e-05 0)
(0 1.37821e-05 0)
(0 1.37996e-05 0)
(0 1.38171e-05 0)
(0 1.38343e-05 0)
(0 1.38512e-05 0)
(0 1.38681e-05 0)
(0 1.38848e-05 0)
(0 1.39012e-05 0)
(0 1.39175e-05 0)
(0 1.39335e-05 0)
(0 1.39492e-05 0)
(0 1.39649e-05 0)
(0 1.39803e-05 0)
(0 1.39954e-05 0)
(0 1.40104e-05 0)
(0 1.4025e-05 0)
(0 1.40395e-05 0)
(0 1.40537e-05 0)
(0 1.40676e-05 0)
(0 1.40813e-05 0)
(0 1.40946e-05 0)
(0 1.41076e-05 0)
(0 1.41206e-05 0)
(0 1.41332e-05 0)
(0 1.41453e-05 0)
(0 1.41572e-05 0)
(0 1.41688e-05 0)
(0 1.41801e-05 0)
(0 1.41909e-05 0)
(0 1.42016e-05 0)
(0 1.42119e-05 0)
(0 1.42217e-05 0)
(0 1.42313e-05 0)
(0 1.42405e-05 0)
(0 1.42492e-05 0)
(0 1.42576e-05 0)
(0 1.42657e-05 0)
(0 1.42731e-05 0)
(0 1.42801e-05 0)
(0 1.42869e-05 0)
(0 1.42932e-05 0)
(0 1.4299e-05 0)
(0 1.43042e-05 0)
(0 1.43091e-05 0)
(0 1.43135e-05 0)
(0 1.43172e-05 0)
(0 1.43206e-05 0)
(0 1.43235e-05 0)
(0 1.43256e-05 0)
(0 1.43273e-05 0)
(0 1.43285e-05 0)
(0 1.4329e-05 0)
(0 1.4329e-05 0)
(0 1.43283e-05 0)
(0 1.4327e-05 0)
(0 1.43251e-05 0)
(0 1.43225e-05 0)
(0 1.43192e-05 0)
(0 1.43152e-05 0)
(0 1.43106e-05 0)
(0 1.43052e-05 0)
(0 1.4299e-05 0)
(0 1.42921e-05 0)
(0 1.42844e-05 0)
(0 1.42759e-05 0)
(0 1.42667e-05 0)
(0 1.42565e-05 0)
(0 1.42455e-05 0)
(0 1.42336e-05 0)
(0 1.42209e-05 0)
(0 1.42072e-05 0)
(0 1.41926e-05 0)
(0 1.41768e-05 0)
(0 1.41603e-05 0)
(0 1.41429e-05 0)
(0 1.41241e-05 0)
(0 1.41044e-05 0)
(0 1.40837e-05 0)
(0 1.40618e-05 0)
(0 1.40388e-05 0)
(0 1.40146e-05 0)
(0 1.39892e-05 0)
(0 1.39626e-05 0)
(0 1.39349e-05 0)
(0 1.39058e-05 0)
(0 1.38753e-05 0)
(0 1.38436e-05 0)
(0 1.38106e-05 0)
(0 1.37761e-05 0)
(0 1.37402e-05 0)
(0 1.37028e-05 0)
(0 1.36641e-05 0)
(0 1.36238e-05 0)
(0 1.35819e-05 0)
(0 1.35384e-05 0)
(0 1.34933e-05 0)
(0 1.34467e-05 0)
(0 1.33983e-05 0)
(0 1.33482e-05 0)
(0 1.32962e-05 0)
(0 1.32426e-05 0)
(0 1.31872e-05 0)
(0 1.31299e-05 0)
(0 1.30706e-05 0)
(0 1.30095e-05 0)
(0 1.29463e-05 0)
(0 1.28812e-05 0)
(0 1.2814e-05 0)
(0 1.27447e-05 0)
(0 1.26733e-05 0)
(0 1.25998e-05 0)
(0 1.25241e-05 0)
(0 1.2446e-05 0)
(0 1.23658e-05 0)
(0 1.22832e-05 0)
(0 1.21983e-05 0)
(0 1.21109e-05 0)
(0 1.20212e-05 0)
(0 1.1929e-05 0)
(0 1.18343e-05 0)
(0 1.1737e-05 0)
(0 1.16372e-05 0)
(0 1.15347e-05 0)
(0 1.14295e-05 0)
(0 1.13219e-05 0)
(0 1.12114e-05 0)
(0 1.10981e-05 0)
(0 1.09821e-05 0)
(0 1.08633e-05 0)
(0 1.07416e-05 0)
(0 1.0617e-05 0)
(0 1.04895e-05 0)
(0 1.03592e-05 0)
(0 1.02258e-05 0)
(0 1.00895e-05 0)
(0 9.9502e-06 0)
(0 9.80786e-06 0)
(0 9.6626e-06 0)
(0 9.51414e-06 0)
(0 9.36264e-06 0)
(0 9.20819e-06 0)
(0 9.05053e-06 0)
(0 8.88982e-06 0)
(0 8.72605e-06 0)
(0 8.55918e-06 0)
(0 8.38924e-06 0)
(0 8.21614e-06 0)
(0 8.03994e-06 0)
(0 7.86075e-06 0)
(0 7.67853e-06 0)
(0 7.4932e-06 0)
(0 7.3049e-06 0)
(0 7.11358e-06 0)
(0 6.91935e-06 0)
(0 6.7221e-06 0)
(0 6.52192e-06 0)
(0 6.31899e-06 0)
(0 6.11318e-06 0)
(0 5.90461e-06 0)
(0 5.69333e-06 0)
(0 5.47932e-06 0)
(0 5.26273e-06 0)
(0 5.04357e-06 0)
(0 4.82191e-06 0)
(0 4.59794e-06 0)
(0 4.37152e-06 0)
(0 4.1428e-06 0)
(0 3.91195e-06 0)
(0 3.67896e-06 0)
(0 3.44398e-06 0)
(0 3.20707e-06 0)
(0 2.9683e-06 0)
(0 2.72774e-06 0)
(0 2.48562e-06 0)
(0 2.24195e-06 0)
(0 1.99686e-06 0)
(0 1.75038e-06 0)
(0 1.50269e-06 0)
(0 1.25396e-06 0)
(0 1.0042e-06 0)
(0 7.53557e-07 0)
(0 5.0218e-07 0)
(0 2.50229e-07 0)
(0 -2.33065e-09 0)
(0 -2.55285e-07 0)
(0 -5.08498e-07 0)
(0 -7.618e-07 0)
(0 -1.01512e-06 0)
)
;

boundaryField
{
    bottom
    {
        type            fixedValue;
        value           uniform (0 0 0);
    }
    top
    {
        type            fluxCorrectedVelocity;
        phi             phi.water;
        rho             rho.water;
        value           uniform (0 -1.14179e-06 0);
    }
    walls
    {
        type            fixedValue;
        value           uniform (0 0 0);
    }
}


// ************************************************************************* //
