/*--------------------------------*- C++ -*----------------------------------*\
| =========                 |                                                 |
| \\      /  F ield         | foam-extend: Open Source CFD                    |
|  \\    /   O peration     | Version:     5.0                                |
|   \\  /    A nd           | Web:         http://www.foam-extend.org         |
|    \\/     M anipulation  |                                                 |
\*---------------------------------------------------------------------------*/
FoamFile
{
    version     2.0;
    format      ascii;
    class       volScalarField;
    location    "7";
    object      alpha.gas;
}
// * * * * * * * * * * * * * * * * * * * * * * * * * * * * * * * * * * * * * //

dimensions      [0 0 0 0 0 0 0];

internalField   nonuniform List<scalar> 
100
(
0.138865
0.122281
0.112203
0.104774
0.0990181
0.0942827
0.0904316
0.0872704
0.0844725
0.0819721
0.0796646
0.0775635
0.075658
0.0740985
0.0722305
0.0707752
0.0694441
0.0681401
0.0668603
0.0657515
0.0647354
0.0638107
0.0629313
0.0620378
0.0612852
0.0605727
0.0596775
0.0589411
0.0582278
0.0575046
0.0567644
0.055971
0.0552637
0.0546631
0.0541242
0.0536134
0.0531556
0.0526517
0.0522155
0.0517679
0.0513921
0.0510171
0.0505114
0.0500183
0.0495167
0.0490637
0.0486314
0.0481843
0.0478194
0.0474377
0.0471028
0.0466713
0.0463065
0.0459667
0.0456704
0.0453169
0.0449734
0.044651
0.0443482
0.0440313
0.0437465
0.0434552
0.0431421
0.0428293
0.0425027
0.0422224
0.0419558
0.0416841
0.0414349
0.0411734
0.0409157
0.0406363
0.0403652
0.0400984
0.0398003
0.0395824
0.039337
0.0390862
0.0388613
0.038609
0.0383575
0.0381202
0.0378876
0.0376959
0.0374684
0.0372412
0.0369827
0.0367509
0.0365579
0.0363403
0.036165
0.0359633
0.0357512
0.0355301
0.0353433
0.0351369
0.0349351
0.0347274
0.0345107
0.0343491
)
;

boundaryField
{
    inlet
    {
        type            fixedValue;
        value           uniform 0.2;
    }
    outlet
    {
        type            zeroGradient;
    }
    yzfaces
    {
        type            empty;
    }
}


// ************************************************************************* //
