/*--------------------------------*- C++ -*----------------------------------*\
| =========                 |                                                 |
| \\      /  F ield         | foam-extend: Open Source CFD                    |
|  \\    /   O peration     | Version:     5.0                                |
|   \\  /    A nd           | Web:         http://www.foam-extend.org         |
|    \\/     M anipulation  |                                                 |
\*---------------------------------------------------------------------------*/
FoamFile
{
    version     2.0;
    format      ascii;
    class       volScalarField;
    location    "7";
    object      CO2.gas;
}
// * * * * * * * * * * * * * * * * * * * * * * * * * * * * * * * * * * * * * //

dimensions      [0 0 0 0 0 0 0];

internalField   nonuniform List<scalar> 
100
(
0.13884
0.122249
0.112494
0.10495
0.0991516
0.0942954
0.0904336
0.0873539
0.0845565
0.0820176
0.0796686
0.0775645
0.0756524
0.0741126
0.0720895
0.0706657
0.0693805
0.0680561
0.0667126
0.0656602
0.0646656
0.0637447
0.0628633
0.0619951
0.0613016
0.0605962
0.0596182
0.0589252
0.0582158
0.057477
0.0567034
0.055876
0.0551611
0.0545905
0.0540639
0.053528
0.0531137
0.0526202
0.0522158
0.0517493
0.0514045
0.0510051
0.0504709
0.0499613
0.0494792
0.049042
0.0486325
0.0481777
0.0478189
0.0474244
0.0471014
0.0466603
0.0462893
0.0459675
0.0456568
0.045314
0.0449768
0.0446511
0.0443446
0.0440184
0.0437297
0.0434376
0.0431316
0.0428251
0.0424884
0.0422159
0.0419635
0.0416926
0.0414415
0.0411739
0.0409102
0.0406144
0.0403516
0.0400849
0.0397791
0.0395756
0.0393149
0.0390448
0.0388265
0.0385758
0.0383324
0.0380991
0.0378723
0.0376868
0.0374566
0.0372179
0.036957
0.0367315
0.0365368
0.0363162
0.0361388
0.0359431
0.0357239
0.0355131
0.035326
0.0351099
0.0349136
0.0347128
0.0345018
0.0343296
)
;

boundaryField
{
    inlet
    {
        type            fixedValue;
        value           uniform 0.2;
    }
    outlet
    {
        type            zeroGradient;
    }
    yzfaces
    {
        type            empty;
    }
}


// ************************************************************************* //
