/*--------------------------------*- C++ -*----------------------------------*\
| =========                 |                                                 |
| \\      /  F ield         | foam-extend: Open Source CFD                    |
|  \\    /   O peration     | Version:     5.0                                |
|   \\  /    A nd           | Web:         http://www.foam-extend.org         |
|    \\/     M anipulation  |                                                 |
\*---------------------------------------------------------------------------*/
FoamFile
{
    version     2.0;
    format      ascii;
    class       volVectorField;
    location    "7";
    object      U.gas;
}
// * * * * * * * * * * * * * * * * * * * * * * * * * * * * * * * * * * * * * //

dimensions      [0 1 -1 0 0 0 0];

internalField   nonuniform List<vector> 
100
(
(0.00720842 0 0)
(0.00817455 0 0)
(0.00889746 0 0)
(0.0095361 0 0)
(0.0100248 0 0)
(0.0104524 0 0)
(0.0108837 0 0)
(0.0112234 0 0)
(0.0115351 0 0)
(0.0118537 0 0)
(0.0121235 0 0)
(0.0123873 0 0)
(0.012679 0 0)
(0.0129123 0 0)
(0.0131838 0 0)
(0.0133875 0 0)
(0.0135953 0 0)
(0.0137958 0 0)
(0.0140182 0 0)
(0.0142329 0 0)
(0.0143888 0 0)
(0.0145548 0 0)
(0.0147442 0 0)
(0.0149398 0 0)
(0.0150831 0 0)
(0.0152023 0 0)
(0.0153904 0 0)
(0.0155503 0 0)
(0.0157 0 0)
(0.0158509 0 0)
(0.015978 0 0)
(0.016116 0 0)
(0.0162535 0 0)
(0.0163614 0 0)
(0.0164744 0 0)
(0.0165957 0 0)
(0.0167002 0 0)
(0.0168136 0 0)
(0.016888 0 0)
(0.0169711 0 0)
(0.0170411 0 0)
(0.0171287 0 0)
(0.0172755 0 0)
(0.0173982 0 0)
(0.0175095 0 0)
(0.0176007 0 0)
(0.0177056 0 0)
(0.0178278 0 0)
(0.0179262 0 0)
(0.0180503 0 0)
(0.0181265 0 0)
(0.0182512 0 0)
(0.0183638 0 0)
(0.0184522 0 0)
(0.0185184 0 0)
(0.0186031 0 0)
(0.0187001 0 0)
(0.0187923 0 0)
(0.0188606 0 0)
(0.0189227 0 0)
(0.0189816 0 0)
(0.0190485 0 0)
(0.0191218 0 0)
(0.0191887 0 0)
(0.0192809 0 0)
(0.0193457 0 0)
(0.0193979 0 0)
(0.0194629 0 0)
(0.0195288 0 0)
(0.0195949 0 0)
(0.0196373 0 0)
(0.0196952 0 0)
(0.0197582 0 0)
(0.019807 0 0)
(0.0198765 0 0)
(0.0199241 0 0)
(0.0199691 0 0)
(0.020012 0 0)
(0.0200618 0 0)
(0.020128 0 0)
(0.0201895 0 0)
(0.0202425 0 0)
(0.0202957 0 0)
(0.0203337 0 0)
(0.0204035 0 0)
(0.0204672 0 0)
(0.0205337 0 0)
(0.0205923 0 0)
(0.0206258 0 0)
(0.0206796 0 0)
(0.0207057 0 0)
(0.0207326 0 0)
(0.0207633 0 0)
(0.0208081 0 0)
(0.02084 0 0)
(0.0208659 0 0)
(0.0208926 0 0)
(0.020942 0 0)
(0.0210035 0 0)
(0.0210235 0 0)
)
;

boundaryField
{
    inlet
    {
        type            fixedValue;
        value           uniform (0.005 0 0);
    }
    outlet
    {
        type            zeroGradient;
    }
    yzfaces
    {
        type            empty;
    }
}


// ************************************************************************* //
