/*--------------------------------*- C++ -*----------------------------------*\
| =========                 |                                                 |
| \\      /  F ield         | foam-extend: Open Source CFD                    |
|  \\    /   O peration     | Version:     5.0                                |
|   \\  /    A nd           | Web:         http://www.foam-extend.org         |
|    \\/     M anipulation  |                                                 |
\*---------------------------------------------------------------------------*/
FoamFile
{
    version     2.0;
    format      ascii;
    class       volVectorField;
    location    "7";
    object      U.water;
}
// * * * * * * * * * * * * * * * * * * * * * * * * * * * * * * * * * * * * * //

dimensions      [0 1 -1 0 0 0 0];

internalField   nonuniform List<vector> 
100
(
(2.78833e-05 0 0)
(6.74829e-05 0 0)
(0.000101607 0 0)
(0.000132848 0 0)
(0.000161626 0 0)
(0.000188768 0 0)
(0.00021552 0 0)
(0.000239835 0 0)
(0.000262623 0 0)
(0.000285638 0 0)
(0.000307804 0 0)
(0.000330065 0 0)
(0.000352868 0 0)
(0.000373801 0 0)
(0.000394402 0 0)
(0.00041715 0 0)
(0.00043782 0 0)
(0.000456798 0 0)
(0.00047751 0 0)
(0.000499002 0 0)
(0.000517109 0 0)
(0.000535559 0 0)
(0.000553933 0 0)
(0.000572401 0 0)
(0.000590215 0 0)
(0.000605944 0 0)
(0.000624039 0 0)
(0.000643346 0 0)
(0.000660868 0 0)
(0.00067917 0 0)
(0.000696989 0 0)
(0.000716292 0 0)
(0.00073637 0 0)
(0.000754192 0 0)
(0.000771301 0 0)
(0.000787714 0 0)
(0.000803109 0 0)
(0.00081794 0 0)
(0.000831929 0 0)
(0.000845312 0 0)
(0.000858831 0 0)
(0.000872024 0 0)
(0.000887979 0 0)
(0.000906279 0 0)
(0.000924515 0 0)
(0.000941917 0 0)
(0.000959037 0 0)
(0.000977153 0 0)
(0.000994448 0 0)
(0.00101118 0 0)
(0.0010261 0 0)
(0.00104296 0 0)
(0.00106214 0 0)
(0.00107786 0 0)
(0.00109214 0 0)
(0.00110658 0 0)
(0.00112335 0 0)
(0.00113988 0 0)
(0.00115478 0 0)
(0.00116894 0 0)
(0.00118321 0 0)
(0.00119711 0 0)
(0.00121219 0 0)
(0.00122796 0 0)
(0.00124543 0 0)
(0.00126158 0 0)
(0.00127537 0 0)
(0.00128995 0 0)
(0.00130499 0 0)
(0.00131958 0 0)
(0.0013331 0 0)
(0.00134766 0 0)
(0.00136406 0 0)
(0.00137896 0 0)
(0.00139524 0 0)
(0.00141166 0 0)
(0.00142443 0 0)
(0.00143832 0 0)
(0.00145344 0 0)
(0.00146887 0 0)
(0.00148505 0 0)
(0.0015014 0 0)
(0.00151733 0 0)
(0.00153173 0 0)
(0.00154653 0 0)
(0.00156264 0 0)
(0.00157919 0 0)
(0.00159746 0 0)
(0.0016128 0 0)
(0.00162723 0 0)
(0.00164087 0 0)
(0.00165275 0 0)
(0.00166671 0 0)
(0.00168246 0 0)
(0.00169757 0 0)
(0.00171047 0 0)
(0.00172516 0 0)
(0.00174121 0 0)
(0.0017589 0 0)
(0.00177389 0 0)
)
;

boundaryField
{
    inlet
    {
        type            fixedValue;
        value           uniform (0 0 0);
    }
    outlet
    {
        type            zeroGradient;
    }
    yzfaces
    {
        type            empty;
    }
}


// ************************************************************************* //
