/*--------------------------------*- C++ -*----------------------------------*\
| =========                 |                                                 |
| \\      /  F ield         | foam-extend: Open Source CFD                    |
|  \\    /   O peration     | Version:     5.0                                |
|   \\  /    A nd           | Web:         http://www.foam-extend.org         |
|    \\/     M anipulation  |                                                 |
\*---------------------------------------------------------------------------*/
FoamFile
{
    version     2.0;
    format      ascii;
    class       volScalarField;
    location    "7";
    object      alpha.gas;
}
// * * * * * * * * * * * * * * * * * * * * * * * * * * * * * * * * * * * * * //

dimensions      [0 0 0 0 0 0 0];

internalField   nonuniform List<scalar> 
100
(
0.0884791
0.0871281
0.0856835
0.0844146
0.0830806
0.0817077
0.0805908
0.079384
0.078191
0.0768388
0.0757153
0.0745722
0.0734548
0.0724733
0.0714472
0.0705319
0.0696445
0.0686037
0.0675925
0.0668353
0.0659515
0.0651054
0.0643644
0.0635821
0.0628079
0.0620241
0.0613415
0.0605948
0.059908
0.0592963
0.058649
0.0580617
0.0574572
0.0567969
0.0562703
0.0556684
0.0550939
0.0545366
0.0539672
0.05341
0.0529736
0.0525172
0.0520582
0.0515209
0.0510781
0.0506216
0.0502058
0.0497819
0.0493683
0.0489093
0.0485179
0.0481344
0.0477548
0.0473597
0.0469169
0.0465644
0.0462175
0.0458549
0.045587
0.045211
0.0448665
0.0444975
0.0441916
0.0438801
0.0435587
0.0432436
0.0429251
0.0426288
0.0423458
0.0420602
0.0418055
0.0415136
0.0412159
0.0409599
0.0406626
0.0404256
0.0401738
0.0398986
0.0396343
0.0393937
0.0391256
0.0388977
0.0386587
0.0384164
0.0381443
0.037915
0.0376882
0.0374485
0.0372117
0.036984
0.0367416
0.0365167
0.0363014
0.0360783
0.0358311
0.0356247
0.0354377
0.0352446
0.0350966
0.0349976
)
;

boundaryField
{
    inlet
    {
        type            fixedValue;
        value           uniform 0.2;
    }
    outlet
    {
        type            zeroGradient;
    }
    yzfaces
    {
        type            empty;
    }
}


// ************************************************************************* //
