/*--------------------------------*- C++ -*----------------------------------*\
| =========                 |                                                 |
| \\      /  F ield         | foam-extend: Open Source CFD                    |
|  \\    /   O peration     | Version:     5.0                                |
|   \\  /    A nd           | Web:         http://www.foam-extend.org         |
|    \\/     M anipulation  |                                                 |
\*---------------------------------------------------------------------------*/
FoamFile
{
    version     2.0;
    format      ascii;
    class       volScalarField;
    location    "7";
    object      CO2.gas;
}
// * * * * * * * * * * * * * * * * * * * * * * * * * * * * * * * * * * * * * //

dimensions      [0 0 0 0 0 0 0];

internalField   nonuniform List<scalar> 
100
(
0.0442448
0.0436088
0.042843
0.0422363
0.0415627
0.0408312
0.0403114
0.0397091
0.0391139
0.038408
0.0378483
0.0372865
0.0367366
0.0362645
0.0357196
0.0352579
0.034814
0.0342819
0.0337847
0.0334233
0.0329737
0.0325483
0.0321821
0.0317924
0.0314025
0.0310171
0.0306831
0.0303006
0.0299504
0.0296401
0.0293084
0.029021
0.0287293
0.0283993
0.0281346
0.0278407
0.0275395
0.0272565
0.0269642
0.0266764
0.0264777
0.026254
0.0260333
0.02576
0.0255404
0.0253072
0.0251013
0.0248994
0.0246959
0.0244649
0.0242679
0.0240775
0.02389
0.0236901
0.0234601
0.0232931
0.0231163
0.0229317
0.022804
0.0226109
0.0224446
0.0222564
0.0221032
0.0219448
0.0217849
0.0216249
0.0214605
0.0213126
0.0211701
0.0210274
0.0208984
0.0207479
0.0205984
0.0204741
0.020319
0.0202083
0.0200833
0.0199439
0.0198129
0.0196906
0.019552
0.0194451
0.0193215
0.0192063
0.0190713
0.0189651
0.0188489
0.0187224
0.0186045
0.0184881
0.0183662
0.0182512
0.0181406
0.0180301
0.0179044
0.0178006
0.0177066
0.0176052
0.0175304
0.017479
)
;

boundaryField
{
    inlet
    {
        type            fixedValue;
        value           uniform 0.1;
    }
    outlet
    {
        type            zeroGradient;
    }
    yzfaces
    {
        type            empty;
    }
}


// ************************************************************************* //
