/*--------------------------------*- C++ -*----------------------------------*\
| =========                 |                                                 |
| \\      /  F ield         | foam-extend: Open Source CFD                    |
|  \\    /   O peration     | Version:     5.0                                |
|   \\  /    A nd           | Web:         http://www.foam-extend.org         |
|    \\/     M anipulation  |                                                 |
\*---------------------------------------------------------------------------*/
FoamFile
{
    version     2.0;
    format      ascii;
    class       volScalarField;
    location    "7";
    object      H2O.gas;
}
// * * * * * * * * * * * * * * * * * * * * * * * * * * * * * * * * * * * * * //

dimensions      [0 0 0 0 0 0 0];

internalField   nonuniform List<scalar> 
100
(
0.0442467
0.0435526
0.0428052
0.0421962
0.0415156
0.0408129
0.0403001
0.0396953
0.0391365
0.038422
0.0378749
0.0372693
0.0367006
0.0362136
0.0357136
0.0352841
0.0348618
0.0343088
0.033769
0.0334346
0.0329631
0.0325357
0.0321813
0.0317905
0.0314004
0.0309965
0.0306603
0.0302839
0.0299388
0.0296517
0.029346
0.0290552
0.0287403
0.0283857
0.0281488
0.0278242
0.0275453
0.02728
0.0270032
0.0267138
0.0264965
0.0262726
0.0260344
0.0257545
0.0255466
0.0253098
0.0251081
0.0248823
0.0246812
0.0244415
0.0242431
0.0240554
0.0238717
0.0236763
0.0234439
0.0232662
0.0230992
0.0229235
0.0227995
0.0226029
0.0224242
0.0222369
0.0220939
0.0219427
0.0217778
0.0216185
0.0214626
0.0213141
0.0211719
0.0210333
0.0209085
0.0207624
0.0206125
0.0204873
0.020337
0.0202194
0.0200956
0.0199534
0.019823
0.0197085
0.0195758
0.0194591
0.0193397
0.0192137
0.019074
0.018954
0.0188466
0.0187272
0.0186079
0.0184989
0.0183734
0.0182625
0.0181624
0.0180512
0.0179238
0.0178228
0.0177316
0.0176376
0.0175689
0.017523
)
;

boundaryField
{
    inlet
    {
        type            fixedValue;
        value           uniform 0.1;
    }
    outlet
    {
        type            zeroGradient;
    }
    yzfaces
    {
        type            empty;
    }
}


// ************************************************************************* //
