/*--------------------------------*- C++ -*----------------------------------*\
| =========                 |                                                 |
| \\      /  F ield         | foam-extend: Open Source CFD                    |
|  \\    /   O peration     | Version:     5.0                                |
|   \\  /    A nd           | Web:         http://www.foam-extend.org         |
|    \\/     M anipulation  |                                                 |
\*---------------------------------------------------------------------------*/
FoamFile
{
    version     2.0;
    format      ascii;
    class       surfaceScalarField;
    location    "7";
    object      phi;
}
// * * * * * * * * * * * * * * * * * * * * * * * * * * * * * * * * * * * * * //

dimensions      [0 3 -1 0 0 0 0];

internalField   nonuniform List<scalar> 
99
(
1.2274e-06
1.22198e-06
1.22808e-06
1.22877e-06
1.22745e-06
1.23747e-06
1.23165e-06
1.2378e-06
1.22384e-06
1.22609e-06
1.22233e-06
1.22409e-06
1.2237e-06
1.2223e-06
1.2254e-06
1.22618e-06
1.22082e-06
1.22482e-06
1.23371e-06
1.22241e-06
1.22662e-06
1.23177e-06
1.23041e-06
1.2322e-06
1.23273e-06
1.23604e-06
1.23432e-06
1.23502e-06
1.23958e-06
1.24205e-06
1.24071e-06
1.23815e-06
1.23605e-06
1.2423e-06
1.23671e-06
1.23763e-06
1.24067e-06
1.23859e-06
1.23661e-06
1.24292e-06
1.24452e-06
1.24233e-06
1.23928e-06
1.24448e-06
1.24078e-06
1.24248e-06
1.24116e-06
1.24221e-06
1.23853e-06
1.23916e-06
1.24159e-06
1.24157e-06
1.23936e-06
1.2353e-06
1.24034e-06
1.24e-06
1.23993e-06
1.24222e-06
1.23575e-06
1.2366e-06
1.23641e-06
1.23965e-06
1.23702e-06
1.2345e-06
1.23333e-06
1.23479e-06
1.23459e-06
1.23516e-06
1.2365e-06
1.23627e-06
1.23523e-06
1.23518e-06
1.23794e-06
1.23526e-06
1.23967e-06
1.23888e-06
1.23739e-06
1.23808e-06
1.23749e-06
1.23523e-06
1.2369e-06
1.23413e-06
1.2351e-06
1.23345e-06
1.23313e-06
1.2324e-06
1.22986e-06
1.22954e-06
1.23037e-06
1.22813e-06
1.22934e-06
1.23025e-06
1.22892e-06
1.22613e-06
1.22872e-06
1.22783e-06
1.22708e-06
1.2283e-06
1.2273e-06
)
;

boundaryField
{
    inlet
    {
        type            calculated;
        value           uniform -1.225e-06;
    }
    outlet
    {
        type            calculated;
        value           uniform 1.22534e-06;
    }
    yzfaces
    {
        type            empty;
    }
}


// ************************************************************************* //
