/*--------------------------------*- C++ -*----------------------------------*\
| =========                 |                                                 |
| \\      /  F ield         | foam-extend: Open Source CFD                    |
|  \\    /   O peration     | Version:     5.0                                |
|   \\  /    A nd           | Web:         http://www.foam-extend.org         |
|    \\/     M anipulation  |                                                 |
\*---------------------------------------------------------------------------*/
FoamFile
{
    version     2.0;
    format      ascii;
    class       volVectorField;
    location    "7";
    object      U.gas;
}
// * * * * * * * * * * * * * * * * * * * * * * * * * * * * * * * * * * * * * //

dimensions      [0 1 -1 0 0 0 0];

internalField   nonuniform List<vector> 
100
(
(0.0112986 0 0)
(0.0114473 0 0)
(0.0116167 0 0)
(0.0117929 0 0)
(0.0119725 0 0)
(0.0121695 0 0)
(0.0123185 0 0)
(0.0124957 0 0)
(0.0126411 0 0)
(0.0127683 0 0)
(0.0128966 0 0)
(0.0130555 0 0)
(0.0132106 0 0)
(0.0133393 0 0)
(0.0135025 0 0)
(0.013651 0 0)
(0.0137881 0 0)
(0.0139724 0 0)
(0.0141749 0 0)
(0.0142697 0 0)
(0.0143985 0 0)
(0.0145806 0 0)
(0.0147248 0 0)
(0.0148765 0 0)
(0.0150354 0 0)
(0.0151922 0 0)
(0.0153232 0 0)
(0.0154644 0 0)
(0.0156079 0 0)
(0.0157646 0 0)
(0.0158999 0 0)
(0.0159852 0 0)
(0.0160918 0 0)
(0.0162433 0 0)
(0.0163418 0 0)
(0.0164481 0 0)
(0.0165867 0 0)
(0.0167118 0 0)
(0.0168078 0 0)
(0.0169335 0 0)
(0.0170594 0 0)
(0.0171618 0 0)
(0.0172425 0 0)
(0.017377 0 0)
(0.0174663 0 0)
(0.0175513 0 0)
(0.0176397 0 0)
(0.0177338 0 0)
(0.0178155 0 0)
(0.0178983 0 0)
(0.0179894 0 0)
(0.0180913 0 0)
(0.0181659 0 0)
(0.0182257 0 0)
(0.0183294 0 0)
(0.0184185 0 0)
(0.0184988 0 0)
(0.018586 0 0)
(0.0186125 0 0)
(0.0186835 0 0)
(0.0187636 0 0)
(0.0188665 0 0)
(0.0189262 0 0)
(0.0189639 0 0)
(0.019011 0 0)
(0.0190853 0 0)
(0.0191654 0 0)
(0.019226 0 0)
(0.0193022 0 0)
(0.0193721 0 0)
(0.01942 0 0)
(0.0194914 0 0)
(0.0195737 0 0)
(0.0196286 0 0)
(0.019711 0 0)
(0.0197763 0 0)
(0.019826 0 0)
(0.0198873 0 0)
(0.0199386 0 0)
(0.0199685 0 0)
(0.0200241 0 0)
(0.0200533 0 0)
(0.0200975 0 0)
(0.0201534 0 0)
(0.0201985 0 0)
(0.0202224 0 0)
(0.0202462 0 0)
(0.0202781 0 0)
(0.0203292 0 0)
(0.0203659 0 0)
(0.0204092 0 0)
(0.0204613 0 0)
(0.0204988 0 0)
(0.0205206 0 0)
(0.0205696 0 0)
(0.0206026 0 0)
(0.0206203 0 0)
(0.0206544 0 0)
(0.0206533 0 0)
(0.0206037 0 0)
)
;

boundaryField
{
    inlet
    {
        type            fixedValue;
        value           uniform (0.005 0 0);
    }
    outlet
    {
        type            zeroGradient;
    }
    yzfaces
    {
        type            empty;
    }
}


// ************************************************************************* //
