/*--------------------------------*- C++ -*----------------------------------*\
| =========                 |                                                 |
| \\      /  F ield         | foam-extend: Open Source CFD                    |
|  \\    /   O peration     | Version:     5.0                                |
|   \\  /    A nd           | Web:         http://www.foam-extend.org         |
|    \\/     M anipulation  |                                                 |
\*---------------------------------------------------------------------------*/
FoamFile
{
    version     2.0;
    format      ascii;
    class       volVectorField;
    location    "7";
    object      U.water;
}
// * * * * * * * * * * * * * * * * * * * * * * * * * * * * * * * * * * * * * //

dimensions      [0 1 -1 0 0 0 0];

internalField   nonuniform List<vector> 
100
(
(1.16048e-05 0 0)
(2.09279e-05 0 0)
(4.08316e-05 0 0)
(6.31955e-05 0 0)
(6.71835e-05 0 0)
(9.93475e-05 0 0)
(0.00012599 0 0)
(0.00013249 0 0)
(0.000134019 0 0)
(0.000153251 0 0)
(0.000184164 0 0)
(0.000198993 0 0)
(0.000226894 0 0)
(0.000247975 0 0)
(0.000267173 0 0)
(0.000292049 0 0)
(0.000295423 0 0)
(0.000301864 0 0)
(0.000342591 0 0)
(0.000366296 0 0)
(0.000373037 0 0)
(0.000401395 0 0)
(0.000421806 0 0)
(0.000434416 0 0)
(0.000450115 0 0)
(0.000473865 0 0)
(0.000493059 0 0)
(0.000508113 0 0)
(0.00053541 0 0)
(0.000555249 0 0)
(0.000572054 0 0)
(0.000589348 0 0)
(0.000598292 0 0)
(0.000621515 0 0)
(0.000642063 0 0)
(0.000653316 0 0)
(0.000674395 0 0)
(0.000691154 0 0)
(0.000706834 0 0)
(0.000734263 0 0)
(0.000758915 0 0)
(0.000771286 0 0)
(0.000779282 0 0)
(0.000798076 0 0)
(0.000820881 0 0)
(0.000837475 0 0)
(0.000855262 0 0)
(0.000870706 0 0)
(0.000883121 0 0)
(0.000899511 0 0)
(0.000922512 0 0)
(0.000939771 0 0)
(0.000953166 0 0)
(0.000962389 0 0)
(0.000983147 0 0)
(0.00100847 0 0)
(0.00102252 0 0)
(0.00104359 0 0)
(0.00105515 0 0)
(0.00106224 0 0)
(0.00107995 0 0)
(0.00110045 0 0)
(0.00112002 0 0)
(0.00113147 0 0)
(0.00114537 0 0)
(0.00116153 0 0)
(0.00117926 0 0)
(0.00119769 0 0)
(0.00121451 0 0)
(0.00123146 0 0)
(0.00124476 0 0)
(0.00125673 0 0)
(0.00127651 0 0)
(0.00129202 0 0)
(0.00130963 0 0)
(0.00132968 0 0)
(0.00134043 0 0)
(0.00135492 0 0)
(0.00137302 0 0)
(0.00138624 0 0)
(0.00140219 0 0)
(0.00141872 0 0)
(0.00143117 0 0)
(0.00144414 0 0)
(0.00146 0 0)
(0.00147829 0 0)
(0.00149071 0 0)
(0.00150383 0 0)
(0.00152075 0 0)
(0.00153515 0 0)
(0.00155079 0 0)
(0.0015704 0 0)
(0.0015859 0 0)
(0.00159659 0 0)
(0.00161391 0 0)
(0.00163476 0 0)
(0.00164843 0 0)
(0.00166453 0 0)
(0.00168234 0 0)
(0.00169692 0 0)
)
;

boundaryField
{
    inlet
    {
        type            fixedValue;
        value           uniform (0 0 0);
    }
    outlet
    {
        type            zeroGradient;
    }
    yzfaces
    {
        type            empty;
    }
}


// ************************************************************************* //
