/*--------------------------------*- C++ -*----------------------------------*\
| =========                 |                                                 |
| \\      /  F ield         | foam-extend: Open Source CFD                    |
|  \\    /   O peration     | Version:     5.0                                |
|   \\  /    A nd           | Web:         http://www.foam-extend.org         |
|    \\/     M anipulation  |                                                 |
\*---------------------------------------------------------------------------*/
FoamFile
{
    version     2.0;
    format      ascii;
    class       volScalarField;
    location    "1";
    object      S.water;
}
// * * * * * * * * * * * * * * * * * * * * * * * * * * * * * * * * * * * * * //

dimensions      [0 0 0 0 0 0 0];

internalField   nonuniform List<scalar> 
100
(
0.984025
0.957134
0.877698
0.736388
0.587343
0.450653
0.33307
0.238207
0.165662
0.113342
0.0821823
0.0636654
0.0559932
0.052261
0.0510547
0.0505447
0.0506685
0.0501043
0.0502821
0.0504186
0.050488
0.0496261
0.0503016
0.050236
0.0501909
0.0499396
0.0499421
0.0503797
0.0500802
0.0505236
0.049804
0.0497587
0.0493382
0.049568
0.0493971
0.0497539
0.049841
0.0500162
0.0497815
0.0494639
0.0497537
0.0498401
0.0495759
0.0494805
0.0494163
0.0492797
0.0496375
0.0492276
0.0491451
0.0498586
0.049688
0.0498732
0.0497241
0.0500883
0.0501737
0.0499583
0.0499718
0.0500268
0.0496403
0.0497535
0.0497617
0.0495324
0.0496134
0.0495959
0.0497544
0.0493105
0.049519
0.0497523
0.0495388
0.0495509
0.0495405
0.0494727
0.0499708
0.049921
0.0502682
0.0503911
0.0505031
0.0502745
0.0498131
0.049686
0.0497754
0.0495925
0.0503521
0.0501236
0.0502263
0.0500836
0.0499728
0.0498051
0.0493645
0.0496452
0.0497594
0.0503687
0.0501833
0.0500816
0.0500938
0.0503763
0.0492856
0.0499922
0.0503934
0.0507388
)
;

boundaryField
{
    inlet
    {
        type            calculated;
        value           uniform 1;
    }
    outlet
    {
        type            calculated;
        value           uniform 0.0507388;
    }
    yzfaces
    {
        type            empty;
    }
}


// ************************************************************************* //
