/*--------------------------------*- C++ -*----------------------------------*\
| =========                 |                                                 |
| \\      /  F ield         | foam-extend: Open Source CFD                    |
|  \\    /   O peration     | Version:     5.0                                |
|   \\  /    A nd           | Web:         http://www.foam-extend.org         |
|    \\/     M anipulation  |                                                 |
\*---------------------------------------------------------------------------*/
FoamFile
{
    version     2.0;
    format      ascii;
    class       volVectorField;
    location    "1";
    object      U.gas;
}
// * * * * * * * * * * * * * * * * * * * * * * * * * * * * * * * * * * * * * //

dimensions      [0 1 -1 0 0 0 0];

internalField   nonuniform List<vector> 
100
(
(0.00200181 0 0)
(0.00444205 0 0)
(0.00521295 0 0)
(0.00510085 0 0)
(0.00508036 0 0)
(0.00509057 0 0)
(0.00511738 0 0)
(0.00519219 0 0)
(0.00529703 0 0)
(0.00529995 0 0)
(0.00533273 0 0)
(0.00532657 0 0)
(0.00525329 0 0)
(0.00523147 0 0)
(0.0052249 0 0)
(0.00523682 0 0)
(0.00526974 0 0)
(0.00525069 0 0)
(0.00525105 0 0)
(0.00526709 0 0)
(0.00528364 0 0)
(0.00524838 0 0)
(0.00518801 0 0)
(0.00515584 0 0)
(0.00509287 0 0)
(0.00507505 0 0)
(0.00504317 0 0)
(0.00506042 0 0)
(0.00508994 0 0)
(0.00512502 0 0)
(0.00518532 0 0)
(0.00518573 0 0)
(0.0051349 0 0)
(0.00511957 0 0)
(0.00516685 0 0)
(0.00523215 0 0)
(0.00527964 0 0)
(0.00528036 0 0)
(0.00526368 0 0)
(0.00526289 0 0)
(0.00526482 0 0)
(0.00526426 0 0)
(0.00521512 0 0)
(0.00515201 0 0)
(0.00511956 0 0)
(0.00508502 0 0)
(0.00511842 0 0)
(0.00507117 0 0)
(0.00492808 0 0)
(0.00488289 0 0)
(0.00488226 0 0)
(0.00489799 0 0)
(0.0049126 0 0)
(0.0048993 0 0)
(0.00491448 0 0)
(0.0049445 0 0)
(0.00492923 0 0)
(0.00492921 0 0)
(0.00488102 0 0)
(0.00483403 0 0)
(0.00484825 0 0)
(0.00483288 0 0)
(0.00481801 0 0)
(0.00479911 0 0)
(0.00482936 0 0)
(0.00482864 0 0)
(0.00475215 0 0)
(0.00472039 0 0)
(0.00471817 0 0)
(0.00468768 0 0)
(0.00464076 0 0)
(0.00462367 0 0)
(0.0046563 0 0)
(0.00467135 0 0)
(0.00464257 0 0)
(0.00467458 0 0)
(0.00472196 0 0)
(0.0047378 0 0)
(0.00471985 0 0)
(0.00464097 0 0)
(0.00469094 0 0)
(0.0047058 0 0)
(0.0046773 0 0)
(0.00470728 0 0)
(0.00475415 0 0)
(0.00483313 0 0)
(0.00484975 0 0)
(0.00484919 0 0)
(0.00484704 0 0)
(0.00483251 0 0)
(0.00480079 0 0)
(0.00481864 0 0)
(0.00489668 0 0)
(0.00491272 0 0)
(0.00491315 0 0)
(0.00500883 0 0)
(0.00500532 0 0)
(0.00493126 0 0)
(0.00497952 0 0)
(0.00508011 0 0)
)
;

boundaryField
{
    inlet
    {
        type            fixedValue;
        value           uniform (0 0 0);
    }
    outlet
    {
        type            zeroGradient;
    }
    yzfaces
    {
        type            empty;
    }
}


// ************************************************************************* //
