/*--------------------------------*- C++ -*----------------------------------*\
| =========                 |                                                 |
| \\      /  F ield         | foam-extend: Open Source CFD                    |
|  \\    /   O peration     | Version:     5.0                                |
|   \\  /    A nd           | Web:         http://www.foam-extend.org         |
|    \\/     M anipulation  |                                                 |
\*---------------------------------------------------------------------------*/
FoamFile
{
    version     2.0;
    format      ascii;
    class       surfaceScalarField;
    location    "4";
    object      phi;
}
// * * * * * * * * * * * * * * * * * * * * * * * * * * * * * * * * * * * * * //

dimensions      [0 3 -1 0 0 0 0];

internalField   nonuniform List<scalar> 
99
(
1.22415e-06
1.22469e-06
1.22466e-06
1.21736e-06
1.21305e-06
1.213e-06
1.20902e-06
1.21251e-06
1.21338e-06
1.20874e-06
1.20554e-06
1.203e-06
1.20545e-06
1.20492e-06
1.2017e-06
1.20236e-06
1.203e-06
1.20556e-06
1.20454e-06
1.2034e-06
1.20438e-06
1.20334e-06
1.19927e-06
1.20372e-06
1.20222e-06
1.20208e-06
1.20143e-06
1.20146e-06
1.20111e-06
1.20122e-06
1.20301e-06
1.20357e-06
1.20466e-06
1.20498e-06
1.20426e-06
1.20416e-06
1.20381e-06
1.20376e-06
1.20322e-06
1.20335e-06
1.20334e-06
1.20382e-06
1.20259e-06
1.20192e-06
1.20174e-06
1.20156e-06
1.20121e-06
1.20269e-06
1.20223e-06
1.20298e-06
1.20231e-06
1.20303e-06
1.20346e-06
1.20282e-06
1.20317e-06
1.20292e-06
1.2009e-06
1.19982e-06
1.19888e-06
1.19962e-06
1.19899e-06
1.19834e-06
1.19888e-06
1.19778e-06
1.19819e-06
1.198e-06
1.19736e-06
1.19645e-06
1.19568e-06
1.19702e-06
1.19638e-06
1.19635e-06
1.19803e-06
1.19858e-06
1.19764e-06
1.19832e-06
1.1978e-06
1.19777e-06
1.19838e-06
1.19838e-06
1.19949e-06
1.19864e-06
1.1985e-06
1.19872e-06
1.1993e-06
1.20014e-06
1.20053e-06
1.20059e-06
1.20104e-06
1.20096e-06
1.20115e-06
1.20088e-06
1.20058e-06
1.20028e-06
1.20017e-06
1.20075e-06
1.20098e-06
1.20179e-06
1.20182e-06
)
;

boundaryField
{
    inlet
    {
        type            calculated;
        value           uniform -1.225e-06;
    }
    outlet
    {
        type            calculated;
        value           uniform 1.20002e-06;
    }
    yzfaces
    {
        type            empty;
    }
}


// ************************************************************************* //
