/*--------------------------------*- C++ -*----------------------------------*\
| =========                 |                                                 |
| \\      /  F ield         | foam-extend: Open Source CFD                    |
|  \\    /   O peration     | Version:     5.0                                |
|   \\  /    A nd           | Web:         http://www.foam-extend.org         |
|    \\/     M anipulation  |                                                 |
\*---------------------------------------------------------------------------*/
FoamFile
{
    version     2.0;
    format      ascii;
    class       volVectorField;
    location    "4";
    object      U.water;
}
// * * * * * * * * * * * * * * * * * * * * * * * * * * * * * * * * * * * * * //

dimensions      [0 1 -1 0 0 0 0];

internalField   nonuniform List<vector> 
100
(
(4.16097e-05 0 0)
(0.000102164 0 0)
(0.000153819 0 0)
(0.000200033 0 0)
(0.000242327 0 0)
(0.000283217 0 0)
(0.000322798 0 0)
(0.000360663 0 0)
(0.000397777 0 0)
(0.000431294 0 0)
(0.000463731 0 0)
(0.000497068 0 0)
(0.000530236 0 0)
(0.000562539 0 0)
(0.000592154 0 0)
(0.000622811 0 0)
(0.000652991 0 0)
(0.000682147 0 0)
(0.000711476 0 0)
(0.000738897 0 0)
(0.000768922 0 0)
(0.000798858 0 0)
(0.000823299 0 0)
(0.000849803 0 0)
(0.000877788 0 0)
(0.000902412 0 0)
(0.000927376 0 0)
(0.000954791 0 0)
(0.000983501 0 0)
(0.00101261 0 0)
(0.00104305 0 0)
(0.00107239 0 0)
(0.00110009 0 0)
(0.00112749 0 0)
(0.00115412 0 0)
(0.00118116 0 0)
(0.00120678 0 0)
(0.00123129 0 0)
(0.00125678 0 0)
(0.00128161 0 0)
(0.00130517 0 0)
(0.00132897 0 0)
(0.00135287 0 0)
(0.0013758 0 0)
(0.00140016 0 0)
(0.00142598 0 0)
(0.00145216 0 0)
(0.00147843 0 0)
(0.00150302 0 0)
(0.00152727 0 0)
(0.00155228 0 0)
(0.00157899 0 0)
(0.00160731 0 0)
(0.0016332 0 0)
(0.00165829 0 0)
(0.00168378 0 0)
(0.00170539 0 0)
(0.00172576 0 0)
(0.0017494 0 0)
(0.00177524 0 0)
(0.00180102 0 0)
(0.00182567 0 0)
(0.0018519 0 0)
(0.001878 0 0)
(0.00190384 0 0)
(0.00193083 0 0)
(0.00195688 0 0)
(0.00198077 0 0)
(0.00200392 0 0)
(0.00203071 0 0)
(0.00205784 0 0)
(0.00208304 0 0)
(0.00211144 0 0)
(0.0021406 0 0)
(0.00216593 0 0)
(0.00219187 0 0)
(0.0022199 0 0)
(0.00224756 0 0)
(0.00227605 0 0)
(0.00230387 0 0)
(0.0023326 0 0)
(0.00236134 0 0)
(0.00238843 0 0)
(0.00241622 0 0)
(0.00244484 0 0)
(0.00247521 0 0)
(0.00250576 0 0)
(0.00253615 0 0)
(0.00256682 0 0)
(0.00259743 0 0)
(0.00262796 0 0)
(0.00265833 0 0)
(0.00268888 0 0)
(0.00272022 0 0)
(0.00275197 0 0)
(0.00278494 0 0)
(0.00281877 0 0)
(0.00285348 0 0)
(0.0028882 0 0)
(0.00291942 0 0)
)
;

boundaryField
{
    inlet
    {
        type            fixedValue;
        value           uniform (0 0 0);
    }
    outlet
    {
        type            zeroGradient;
    }
    yzfaces
    {
        type            empty;
    }
}


// ************************************************************************* //
