/*--------------------------------*- C++ -*----------------------------------*\
| =========                 |                                                 |
| \\      /  F ield         | foam-extend: Open Source CFD                    |
|  \\    /   O peration     | Version:     5.0                                |
|   \\  /    A nd           | Web:         http://www.foam-extend.org         |
|    \\/     M anipulation  |                                                 |
\*---------------------------------------------------------------------------*/
FoamFile
{
    version     2.0;
    format      ascii;
    class       surfaceScalarField;
    location    "3";
    object      phi;
}
// * * * * * * * * * * * * * * * * * * * * * * * * * * * * * * * * * * * * * //

dimensions      [0 3 -1 0 0 0 0];

internalField   nonuniform List<scalar> 
99
(
1.22085e-06
1.23163e-06
1.21484e-06
1.22187e-06
1.21982e-06
1.22404e-06
1.21857e-06
1.21916e-06
1.22183e-06
1.21565e-06
1.21289e-06
1.21681e-06
1.22127e-06
1.21256e-06
1.21621e-06
1.21826e-06
1.21417e-06
1.2175e-06
1.21499e-06
1.21961e-06
1.21282e-06
1.21831e-06
1.21173e-06
1.21557e-06
1.21091e-06
1.21303e-06
1.21264e-06
1.2098e-06
1.21179e-06
1.21129e-06
1.21279e-06
1.215e-06
1.20918e-06
1.21028e-06
1.216e-06
1.21415e-06
1.21116e-06
1.21517e-06
1.2141e-06
1.21259e-06
1.2172e-06
1.21316e-06
1.21204e-06
1.21112e-06
1.21213e-06
1.21365e-06
1.21052e-06
1.21328e-06
1.20885e-06
1.2099e-06
1.21212e-06
1.21117e-06
1.20726e-06
1.21426e-06
1.2109e-06
1.21004e-06
1.21067e-06
1.21212e-06
1.20928e-06
1.21342e-06
1.21066e-06
1.21145e-06
1.21126e-06
1.21013e-06
1.21097e-06
1.21076e-06
1.21209e-06
1.21028e-06
1.21172e-06
1.2114e-06
1.21006e-06
1.21082e-06
1.21096e-06
1.21178e-06
1.21257e-06
1.21184e-06
1.21114e-06
1.21305e-06
1.21165e-06
1.21212e-06
1.21235e-06
1.21235e-06
1.21212e-06
1.21258e-06
1.21281e-06
1.21305e-06
1.21305e-06
1.21281e-06
1.21305e-06
1.21328e-06
1.21305e-06
1.21351e-06
1.21351e-06
1.21398e-06
1.21421e-06
1.21514e-06
1.21491e-06
1.21514e-06
1.21444e-06
)
;

boundaryField
{
    inlet
    {
        type            calculated;
        value           uniform -1.225e-06;
    }
    outlet
    {
        type            calculated;
        value           uniform 1.21538e-06;
    }
    yzfaces
    {
        type            empty;
    }
}


// ************************************************************************* //
