/*--------------------------------*- C++ -*----------------------------------*\
| =========                 |                                                 |
| \\      /  F ield         | foam-extend: Open Source CFD                    |
|  \\    /   O peration     | Version:     5.0                                |
|   \\  /    A nd           | Web:         http://www.foam-extend.org         |
|    \\/     M anipulation  |                                                 |
\*---------------------------------------------------------------------------*/
FoamFile
{
    version     2.0;
    format      ascii;
    class       volVectorField;
    location    "3";
    object      U.water;
}
// * * * * * * * * * * * * * * * * * * * * * * * * * * * * * * * * * * * * * //

dimensions      [0 1 -1 0 0 0 0];

internalField   nonuniform List<vector> 
100
(
(8.10351e-06 0 0)
(6.12224e-05 0 0)
(9.36646e-05 0 0)
(0.000115135 0 0)
(0.000164022 0 0)
(0.000210325 0 0)
(0.000254438 0 0)
(0.000283977 0 0)
(0.000326697 0 0)
(0.000368584 0 0)
(0.000400813 0 0)
(0.000440316 0 0)
(0.000494332 0 0)
(0.000527107 0 0)
(0.000557105 0 0)
(0.000610661 0 0)
(0.000647117 0 0)
(0.000686403 0 0)
(0.000727828 0 0)
(0.000773017 0 0)
(0.00081314 0 0)
(0.000849669 0 0)
(0.000886807 0 0)
(0.000922955 0 0)
(0.000964776 0 0)
(0.00100056 0 0)
(0.00104179 0 0)
(0.00107859 0 0)
(0.00111681 0 0)
(0.00115669 0 0)
(0.00119604 0 0)
(0.00124179 0 0)
(0.00127556 0 0)
(0.00130366 0 0)
(0.00135315 0 0)
(0.00139853 0 0)
(0.00142941 0 0)
(0.00146971 0 0)
(0.00151237 0 0)
(0.00154525 0 0)
(0.00158925 0 0)
(0.00163198 0 0)
(0.00166501 0 0)
(0.00170213 0 0)
(0.00174323 0 0)
(0.00178902 0 0)
(0.00182633 0 0)
(0.00186797 0 0)
(0.00190941 0 0)
(0.0019465 0 0)
(0.00199661 0 0)
(0.00204384 0 0)
(0.00207923 0 0)
(0.00212961 0 0)
(0.00218607 0 0)
(0.00222877 0 0)
(0.00227926 0 0)
(0.00233524 0 0)
(0.00238752 0 0)
(0.00244787 0 0)
(0.00251108 0 0)
(0.00257308 0 0)
(0.00264638 0 0)
(0.00272062 0 0)
(0.00280433 0 0)
(0.00289858 0 0)
(0.003006 0 0)
(0.00312577 0 0)
(0.0032665 0 0)
(0.0034389 0 0)
(0.00364299 0 0)
(0.00389721 0 0)
(0.00420821 0 0)
(0.00454457 0 0)
(0.004811 0 0)
(0.00492566 0 0)
(0.00494402 0 0)
(0.00494731 0 0)
(0.00494836 0 0)
(0.00494646 0 0)
(0.00494789 0 0)
(0.00494836 0 0)
(0.00494789 0 0)
(0.00494836 0 0)
(0.00494979 0 0)
(0.00495074 0 0)
(0.00495121 0 0)
(0.00495074 0 0)
(0.00495074 0 0)
(0.00495169 0 0)
(0.00495169 0 0)
(0.00495217 0 0)
(0.00495312 0 0)
(0.00495407 0 0)
(0.00495549 0 0)
(0.00495787 0 0)
(0.00495929 0 0)
(0.00495929 0 0)
(0.00495834 0 0)
(0.00495882 0 0)
)
;

boundaryField
{
    inlet
    {
        type            fixedValue;
        value           uniform (0 0 0);
    }
    outlet
    {
        type            zeroGradient;
    }
    yzfaces
    {
        type            empty;
    }
}


// ************************************************************************* //
