/*--------------------------------*- C++ -*----------------------------------*\
| =========                 |                                                 |
| \\      /  F ield         | foam-extend: Open Source CFD                    |
|  \\    /   O peration     | Version:     5.0                                |
|   \\  /    A nd           | Web:         http://www.foam-extend.org         |
|    \\/     M anipulation  |                                                 |
\*---------------------------------------------------------------------------*/
FoamFile
{
    version     2.0;
    format      ascii;
    class       volScalarField;
    location    "4";
    object      YH2O;
}
// * * * * * * * * * * * * * * * * * * * * * * * * * * * * * * * * * * * * * //

dimensions      [0 0 0 0 0 0 0];

internalField   nonuniform List<scalar> 
100
(
-0.000837548
-0.000779256
0.00105604
0.0009893
-0.00054035
-0.00257259
0.00113312
-0.000174316
-0.00174645
-0.00259656
-0.000278653
-0.00297572
0.00212964
-0.00227263
0.00361925
-0.00401907
0.000642659
-0.00338454
0.000295948
-0.00376882
-0.00216684
-0.000122204
0.000415737
-0.000380084
-0.00147178
-0.000797967
-0.00087509
0.00106496
0.00190252
0.0016604
-0.000601212
0.000873964
-0.000545791
0.000431504
0.000986148
-0.000542029
0.00187826
-0.000424762
0.000407628
-0.00158464
0.00174221
-0.00130695
0.000837618
-0.000486538
0.000279743
-0.0034019
0.00274237
-0.000503014
0.000841517
0.00199887
-0.000597105
0.000866767
0.000336757
0.000712186
0.000896527
-9.34355e-05
0.000588785
-0.00185508
0.000702708
-0.00125703
-0.00230408
0.000199506
-0.0017661
0.000617293
-0.00181595
-0.000768119
-0.000975054
-0.00152561
-0.000173022
-0.00245537
-0.00238522
-0.00528215
-0.00756629
-0.0102667
-0.0148575
-0.0203691
-0.0268355
-0.0352248
-0.0441278
-0.0550308
-0.0666444
-0.0787589
-0.0921075
-0.105941
-0.119091
-0.130515
-0.142774
-0.151157
-0.15934
-0.162373
-0.166623
-0.161979
-0.164405
-0.15219
-0.150088
-0.13185
-0.129423
-0.107228
-0.104281
-0.0800139
)
;

boundaryField
{
    inlet
    {
        type            calculated;
        value           uniform 0;
    }
    outlet
    {
        type            calculated;
        value           uniform -0.0800139;
    }
    yzfaces
    {
        type            empty;
    }
}


// ************************************************************************* //
