/*--------------------------------*- C++ -*----------------------------------*\
| =========                 |                                                 |
| \\      /  F ield         | foam-extend: Open Source CFD                    |
|  \\    /   O peration     | Version:     5.0                                |
|   \\  /    A nd           | Web:         http://www.foam-extend.org         |
|    \\/     M anipulation  |                                                 |
\*---------------------------------------------------------------------------*/
FoamFile
{
    version     2.0;
    format      ascii;
    class       volVectorField;
    location    "4";
    object      U.gas;
}
// * * * * * * * * * * * * * * * * * * * * * * * * * * * * * * * * * * * * * //

dimensions      [0 1 -1 0 0 0 0];

internalField   nonuniform List<vector> 
100
(
(0.000166396 0 0)
(0.000372218 0 0)
(0.000566014 0 0)
(0.000756387 0 0)
(0.000945976 0 0)
(0.00113822 0 0)
(0.00133198 0 0)
(0.00153119 0 0)
(0.0017392 0 0)
(0.00195643 0 0)
(0.00219043 0 0)
(0.00245297 0 0)
(0.00274936 0 0)
(0.00311508 0 0)
(0.00360807 0 0)
(0.00432632 0 0)
(0.00543014 0 0)
(0.00638394 0 0)
(0.00599423 0 0)
(0.00564334 0 0)
(0.00545122 0 0)
(0.00537641 0 0)
(0.00532038 0 0)
(0.0052897 0 0)
(0.00524702 0 0)
(0.00521056 0 0)
(0.00522879 0 0)
(0.00526141 0 0)
(0.00522167 0 0)
(0.00520243 0 0)
(0.00529567 0 0)
(0.00528657 0 0)
(0.0051872 0 0)
(0.00521566 0 0)
(0.00530874 0 0)
(0.00530834 0 0)
(0.00527615 0 0)
(0.00529385 0 0)
(0.00527782 0 0)
(0.00518371 0 0)
(0.00512137 0 0)
(0.00510268 0 0)
(0.00508685 0 0)
(0.00508676 0 0)
(0.00508899 0 0)
(0.00510621 0 0)
(0.00508996 0 0)
(0.00502465 0 0)
(0.00496192 0 0)
(0.0049123 0 0)
(0.0049141 0 0)
(0.00492911 0 0)
(0.00492694 0 0)
(0.00492896 0 0)
(0.00488066 0 0)
(0.00485044 0 0)
(0.00489784 0 0)
(0.00488193 0 0)
(0.00485051 0 0)
(0.00490092 0 0)
(0.00496415 0 0)
(0.00496322 0 0)
(0.00498202 0 0)
(0.00502887 0 0)
(0.00502844 0 0)
(0.00502856 0 0)
(0.00504485 0 0)
(0.0051084 0 0)
(0.00512235 0 0)
(0.00510464 0 0)
(0.00513773 0 0)
(0.00521702 0 0)
(0.00528296 0 0)
(0.00526443 0 0)
(0.0051688 0 0)
(0.00515384 0 0)
(0.00518391 0 0)
(0.00515223 0 0)
(0.00512138 0 0)
(0.0050572 0 0)
(0.0051074 0 0)
(0.00515582 0 0)
(0.0051236 0 0)
(0.00509432 0 0)
(0.00509345 0 0)
(0.00502961 0 0)
(0.00504701 0 0)
(0.00508935 0 0)
(0.00505898 0 0)
(0.00510702 0 0)
(0.00509011 0 0)
(0.00514031 0 0)
(0.00518686 0 0)
(0.00512463 0 0)
(0.00512834 0 0)
(0.00511161 0 0)
(0.00514903 0 0)
(0.00522683 0 0)
(0.00525881 0 0)
(0.00530994 0 0)
)
;

boundaryField
{
    inlet
    {
        type            fixedValue;
        value           uniform (0 0 0);
    }
    outlet
    {
        type            zeroGradient;
    }
    yzfaces
    {
        type            empty;
    }
}


// ************************************************************************* //
