/*--------------------------------*- C++ -*----------------------------------*\
| =========                 |                                                 |
| \\      /  F ield         | foam-extend: Open Source CFD                    |
|  \\    /   O peration     | Version:     5.0                                |
|   \\  /    A nd           | Web:         http://www.foam-extend.org         |
|    \\/     M anipulation  |                                                 |
\*---------------------------------------------------------------------------*/
FoamFile
{
    version     2.0;
    format      ascii;
    class       volScalarField;
    location    "4";
    object      XCO2;
}
// * * * * * * * * * * * * * * * * * * * * * * * * * * * * * * * * * * * * * //

dimensions      [0 0 0 0 0 0 0];

internalField   nonuniform List<scalar> 
100
(
0.00142129
0
0.0015664
7.20871e-06
0.00479407
0.000593687
0.00601423
0.0039213
0.00276212
0.012804
0
0.0165089
9.32378e-05
0.0121816
0.0163226
0
0.0171681
0.0219506
0.00665225
0.0183818
0.0226691
0.0322109
0.0598753
0.0139399
0.0363792
0.0367095
0.0564902
0.061624
0.00939612
0.102871
0.0120871
0.0363925
0.0126939
0.0362718
0.0398053
0.0295307
0
0.0424091
0.0177955
0.0589792
0.045633
0.0755264
0.0123204
0.0739461
0.0333843
0.0169674
0.057749
0
0.063571
0.0587462
0.0185281
0.0129232
0.0318944
0.0175349
0.0192085
0.0429098
0.0302176
0.0334941
0.079436
0.0428379
0.109005
0
0.042889
0.11395
0.00044004
0.0828121
0.0303092
0.0372058
0.00954885
0.0340648
0.0179784
0.0576291
0.0620785
0.0499987
0.034818
0.0429963
0.0131725
0.034507
0.0272935
0.00436147
0.064514
0.00696439
0.0886904
0.0353019
0.081658
0.100543
0.0134448
0.108656
0.00893325
0.0689071
0.0256236
0.0235474
0.126195
0.023496
0.0407025
0.0416067
0.0242929
0.119877
0.00309761
0.311681
)
;

boundaryField
{
    inlet
    {
        type            fixedValue;
        value           uniform 0;
    }
    outlet
    {
        type            zeroGradient;
    }
    yzfaces
    {
        type            empty;
    }
}


// ************************************************************************* //
