/*--------------------------------*- C++ -*----------------------------------*\
| =========                 |                                                 |
| \\      /  F ield         | foam-extend: Open Source CFD                    |
|  \\    /   O peration     | Version:     5.0                                |
|   \\  /    A nd           | Web:         http://www.foam-extend.org         |
|    \\/     M anipulation  |                                                 |
\*---------------------------------------------------------------------------*/
FoamFile
{
    version     2.0;
    format      ascii;
    class       volScalarField;
    location    "4";
    object      XH2O;
}
// * * * * * * * * * * * * * * * * * * * * * * * * * * * * * * * * * * * * * //

dimensions      [0 0 0 0 0 0 0];

internalField   nonuniform List<scalar> 
100
(
0.998579
1
0.998434
0.999993
0.995206
0.999406
0.993986
0.996079
0.997238
0.987196
1
0.983491
0.999907
0.987818
0.983677
1
0.982832
0.978049
0.993348
0.981618
0.977331
0.967789
0.940125
0.98606
0.963621
0.96329
0.94351
0.938376
0.990604
0.897129
0.987913
0.963607
0.987306
0.963728
0.960195
0.970469
1
0.957591
0.982204
0.941021
0.954367
0.924474
0.98768
0.926054
0.966616
0.983033
0.942251
1
0.936429
0.941254
0.981472
0.987077
0.968106
0.982465
0.980792
0.95709
0.969782
0.966506
0.920564
0.957162
0.890995
1
0.957111
0.88605
0.99956
0.917188
0.969691
0.962794
0.990451
0.965935
0.982022
0.942371
0.937922
0.950001
0.965182
0.957004
0.986828
0.965493
0.972707
0.995639
0.935486
0.993036
0.91131
0.964698
0.918342
0.899457
0.986555
0.891344
0.991067
0.931093
0.974376
0.976453
0.873805
0.976504
0.959298
0.958393
0.975707
0.880123
0.996902
0.688319
)
;

boundaryField
{
    inlet
    {
        type            fixedValue;
        value           uniform 1;
    }
    outlet
    {
        type            zeroGradient;
    }
    yzfaces
    {
        type            empty;
    }
}


// ************************************************************************* //
