/*--------------------------------*- C++ -*----------------------------------*\
| =========                 |                                                 |
| \\      /  F ield         | foam-extend: Open Source CFD                    |
|  \\    /   O peration     | Version:     5.0                                |
|   \\  /    A nd           | Web:         http://www.foam-extend.org         |
|    \\/     M anipulation  |                                                 |
\*---------------------------------------------------------------------------*/
FoamFile
{
    version     2.0;
    format      ascii;
    class       volScalarField;
    location    "10";
    object      alpha.gas;
}
// * * * * * * * * * * * * * * * * * * * * * * * * * * * * * * * * * * * * * //

dimensions      [0 0 0 0 0 0 0];

internalField   nonuniform List<scalar> 
100
(
0.0929323
0.0916757
0.0905054
0.0893317
0.0882084
0.0871887
0.0860536
0.0849985
0.0839542
0.0829705
0.0818659
0.0809264
0.0799594
0.0789392
0.0780186
0.0771983
0.0762524
0.0754835
0.0746735
0.0738333
0.0730025
0.0721638
0.0713323
0.0705501
0.0698861
0.0691605
0.0684224
0.0677943
0.0671265
0.0664855
0.0658028
0.0652689
0.0646887
0.0641158
0.0635237
0.0629247
0.0623657
0.0618424
0.0612803
0.0607981
0.0602811
0.059767
0.0592969
0.0587891
0.0583147
0.0578726
0.0574324
0.0569602
0.0565481
0.0561212
0.0557316
0.0553119
0.0548943
0.0545398
0.0541806
0.053739
0.0534017
0.0530587
0.0526777
0.0523194
0.0519665
0.051667
0.0513442
0.0510345
0.05069
0.0504001
0.0500915
0.0497876
0.0494711
0.0491821
0.048876
0.0486319
0.0483573
0.0480927
0.04779
0.0474794
0.0472314
0.046947
0.0466976
0.0464146
0.0461446
0.0459359
0.0456686
0.0454118
0.0451615
0.0449213
0.0447228
0.0444411
0.0442538
0.0440058
0.0437864
0.0435336
0.0433198
0.0431243
0.0429062
0.0426796
0.0425115
0.0423765
0.042253
0.0421772
)
;

boundaryField
{
    inlet
    {
        type            fixedValue;
        value           uniform 0.2;
    }
    outlet
    {
        type            zeroGradient;
    }
    yzfaces
    {
        type            empty;
    }
}


// ************************************************************************* //
