/*--------------------------------*- C++ -*----------------------------------*\
| =========                 |                                                 |
| \\      /  F ield         | foam-extend: Open Source CFD                    |
|  \\    /   O peration     | Version:     5.0                                |
|   \\  /    A nd           | Web:         http://www.foam-extend.org         |
|    \\/     M anipulation  |                                                 |
\*---------------------------------------------------------------------------*/
FoamFile
{
    version     2.0;
    format      ascii;
    class       surfaceScalarField;
    location    "10";
    object      phi;
}
// * * * * * * * * * * * * * * * * * * * * * * * * * * * * * * * * * * * * * //

dimensions      [0 3 -1 0 0 0 0];

internalField   nonuniform List<scalar> 
99
(
1.22059e-06
1.22999e-06
1.22926e-06
1.22675e-06
1.23161e-06
1.22342e-06
1.22642e-06
1.22719e-06
1.22782e-06
1.22397e-06
1.23245e-06
1.22567e-06
1.22651e-06
1.23186e-06
1.23422e-06
1.22315e-06
1.23718e-06
1.23233e-06
1.23369e-06
1.23512e-06
1.23034e-06
1.23213e-06
1.23545e-06
1.24179e-06
1.2367e-06
1.23219e-06
1.24209e-06
1.23534e-06
1.23569e-06
1.23046e-06
1.23848e-06
1.23491e-06
1.23424e-06
1.23444e-06
1.23542e-06
1.23526e-06
1.23715e-06
1.2324e-06
1.23603e-06
1.23183e-06
1.23263e-06
1.2325e-06
1.23234e-06
1.23385e-06
1.2329e-06
1.23137e-06
1.2329e-06
1.23539e-06
1.23299e-06
1.23345e-06
1.22979e-06
1.23338e-06
1.23512e-06
1.23316e-06
1.23257e-06
1.23705e-06
1.234e-06
1.23264e-06
1.23305e-06
1.23399e-06
1.23467e-06
1.23431e-06
1.23599e-06
1.23422e-06
1.23666e-06
1.23755e-06
1.23585e-06
1.23288e-06
1.23456e-06
1.23636e-06
1.23812e-06
1.23644e-06
1.23769e-06
1.23524e-06
1.23568e-06
1.23708e-06
1.2356e-06
1.23724e-06
1.23478e-06
1.23602e-06
1.23808e-06
1.23232e-06
1.23127e-06
1.23353e-06
1.23317e-06
1.23467e-06
1.23142e-06
1.23675e-06
1.235e-06
1.23508e-06
1.23279e-06
1.23386e-06
1.23444e-06
1.23283e-06
1.23203e-06
1.23283e-06
1.23562e-06
1.23339e-06
1.23242e-06
)
;

boundaryField
{
    inlet
    {
        type            calculated;
        value           uniform -1.225e-06;
    }
    outlet
    {
        type            calculated;
        value           uniform 1.23439e-06;
    }
    yzfaces
    {
        type            empty;
    }
}


// ************************************************************************* //
