/*--------------------------------*- C++ -*----------------------------------*\
| =========                 |                                                 |
| \\      /  F ield         | foam-extend: Open Source CFD                    |
|  \\    /   O peration     | Version:     5.0                                |
|   \\  /    A nd           | Web:         http://www.foam-extend.org         |
|    \\/     M anipulation  |                                                 |
\*---------------------------------------------------------------------------*/
FoamFile
{
    version     2.0;
    format      ascii;
    class       volVectorField;
    location    "10";
    object      U.gas;
}
// * * * * * * * * * * * * * * * * * * * * * * * * * * * * * * * * * * * * * //

dimensions      [0 1 -1 0 0 0 0];

internalField   nonuniform List<vector> 
100
(
(0.0107399 0 0)
(0.010893 0 0)
(0.0110523 0 0)
(0.0111664 0 0)
(0.0112906 0 0)
(0.011396 0 0)
(0.0115123 0 0)
(0.0116486 0 0)
(0.0117778 0 0)
(0.0118939 0 0)
(0.0120551 0 0)
(0.0121705 0 0)
(0.0122808 0 0)
(0.0124459 0 0)
(0.0125886 0 0)
(0.0126628 0 0)
(0.0128089 0 0)
(0.0129497 0 0)
(0.0130612 0 0)
(0.0132061 0 0)
(0.0133154 0 0)
(0.0134305 0 0)
(0.0135827 0 0)
(0.0137382 0 0)
(0.0138439 0 0)
(0.013921 0 0)
(0.0140613 0 0)
(0.0141739 0 0)
(0.014254 0 0)
(0.0143395 0 0)
(0.0144615 0 0)
(0.0145641 0 0)
(0.01465 0 0)
(0.0147518 0 0)
(0.0148707 0 0)
(0.0149814 0 0)
(0.0150843 0 0)
(0.0151654 0 0)
(0.0152593 0 0)
(0.0153401 0 0)
(0.015426 0 0)
(0.0155218 0 0)
(0.0156096 0 0)
(0.0157205 0 0)
(0.015807 0 0)
(0.0158735 0 0)
(0.0159675 0 0)
(0.0160867 0 0)
(0.0161622 0 0)
(0.0162336 0 0)
(0.0162899 0 0)
(0.0163838 0 0)
(0.0164959 0 0)
(0.0165571 0 0)
(0.0166316 0 0)
(0.0167529 0 0)
(0.0168137 0 0)
(0.0168652 0 0)
(0.0169446 0 0)
(0.0170247 0 0)
(0.0171036 0 0)
(0.017163 0 0)
(0.0172459 0 0)
(0.0173187 0 0)
(0.0173995 0 0)
(0.0174771 0 0)
(0.0175436 0 0)
(0.0175811 0 0)
(0.0176411 0 0)
(0.0177255 0 0)
(0.0178136 0 0)
(0.0178605 0 0)
(0.0179257 0 0)
(0.0179808 0 0)
(0.018047 0 0)
(0.0181223 0 0)
(0.0181694 0 0)
(0.0182395 0 0)
(0.018287 0 0)
(0.0183492 0 0)
(0.0184207 0 0)
(0.0184365 0 0)
(0.0184619 0 0)
(0.0185253 0 0)
(0.0185939 0 0)
(0.0186469 0 0)
(0.0186833 0 0)
(0.0187694 0 0)
(0.0188251 0 0)
(0.0188821 0 0)
(0.0189139 0 0)
(0.0189661 0 0)
(0.0190124 0 0)
(0.019048 0 0)
(0.0190876 0 0)
(0.0191297 0 0)
(0.0191708 0 0)
(0.0191938 0 0)
(0.0191836 0 0)
(0.0191775 0 0)
)
;

boundaryField
{
    inlet
    {
        type            fixedValue;
        value           uniform (0.005 0 0);
    }
    outlet
    {
        type            zeroGradient;
    }
    yzfaces
    {
        type            empty;
    }
}


// ************************************************************************* //
