/*--------------------------------*- C++ -*----------------------------------*\
| =========                 |                                                 |
| \\      /  F ield         | foam-extend: Open Source CFD                    |
|  \\    /   O peration     | Version:     5.0                                |
|   \\  /    A nd           | Web:         http://www.foam-extend.org         |
|    \\/     M anipulation  |                                                 |
\*---------------------------------------------------------------------------*/
FoamFile
{
    version     2.0;
    format      ascii;
    class       volVectorField;
    location    "10";
    object      U.water;
}
// * * * * * * * * * * * * * * * * * * * * * * * * * * * * * * * * * * * * * //

dimensions      [0 1 -1 0 0 0 0];

internalField   nonuniform List<vector> 
100
(
(1.06097e-06 0 0)
(1.48964e-05 0 0)
(3.17904e-05 0 0)
(4.4618e-05 0 0)
(6.69774e-05 0 0)
(7.49044e-05 0 0)
(8.12484e-05 0 0)
(9.87848e-05 0 0)
(0.000114192 0 0)
(0.000118679 0 0)
(0.000133068 0 0)
(0.000154497 0 0)
(0.000157651 0 0)
(0.000172995 0 0)
(0.000200181 0 0)
(0.000207369 0 0)
(0.000222311 0 0)
(0.000244755 0 0)
(0.000249057 0 0)
(0.000258585 0 0)
(0.000269667 0 0)
(0.000280746 0 0)
(0.000297592 0 0)
(0.000323612 0 0)
(0.000339187 0 0)
(0.000343375 0 0)
(0.000363298 0 0)
(0.000380353 0 0)
(0.000389611 0 0)
(0.000398665 0 0)
(0.000418205 0 0)
(0.000437609 0 0)
(0.00044438 0 0)
(0.000454835 0 0)
(0.000464989 0 0)
(0.0004796 0 0)
(0.000496998 0 0)
(0.000507499 0 0)
(0.000522104 0 0)
(0.000536216 0 0)
(0.00054399 0 0)
(0.00055967 0 0)
(0.000571811 0 0)
(0.000583643 0 0)
(0.000600344 0 0)
(0.000613406 0 0)
(0.000622647 0 0)
(0.00063732 0 0)
(0.000652216 0 0)
(0.000664874 0 0)
(0.000676086 0 0)
(0.000685312 0 0)
(0.000703083 0 0)
(0.000718022 0 0)
(0.000722195 0 0)
(0.000736512 0 0)
(0.0007552 0 0)
(0.000761829 0 0)
(0.000772476 0 0)
(0.00078705 0 0)
(0.000802549 0 0)
(0.000815672 0 0)
(0.000826139 0 0)
(0.000835079 0 0)
(0.00084752 0 0)
(0.00086253 0 0)
(0.000872308 0 0)
(0.000880921 0 0)
(0.000892842 0 0)
(0.000906805 0 0)
(0.000921982 0 0)
(0.000934395 0 0)
(0.000943093 0 0)
(0.000951983 0 0)
(0.000959662 0 0)
(0.000975926 0 0)
(0.000989027 0 0)
(0.000999873 0 0)
(0.00101128 0 0)
(0.00102105 0 0)
(0.00103878 0 0)
(0.00104783 0 0)
(0.00105241 0 0)
(0.00106587 0 0)
(0.00107912 0 0)
(0.00109388 0 0)
(0.00110122 0 0)
(0.00111394 0 0)
(0.00112872 0 0)
(0.00113639 0 0)
(0.00114663 0 0)
(0.00115762 0 0)
(0.00117347 0 0)
(0.00118323 0 0)
(0.00119094 0 0)
(0.00120529 0 0)
(0.00122264 0 0)
(0.00123327 0 0)
(0.00124179 0 0)
(0.00125461 0 0)
)
;

boundaryField
{
    inlet
    {
        type            fixedValue;
        value           uniform (0 0 0);
    }
    outlet
    {
        type            zeroGradient;
    }
    yzfaces
    {
        type            empty;
    }
}


// ************************************************************************* //
