/*--------------------------------*- C++ -*----------------------------------*\
| =========                 |                                                 |
| \\      /  F ield         | foam-extend: Open Source CFD                    |
|  \\    /   O peration     | Version:     5.0                                |
|   \\  /    A nd           | Web:         http://www.foam-extend.org         |
|    \\/     M anipulation  |                                                 |
\*---------------------------------------------------------------------------*/
FoamFile
{
    version     2.0;
    format      ascii;
    class       surfaceScalarField;
    location    "3";
    object      phi;
}
// * * * * * * * * * * * * * * * * * * * * * * * * * * * * * * * * * * * * * //

dimensions      [0 3 -1 0 0 0 0];

internalField   nonuniform List<scalar> 
99
(
1.22165e-06
1.22308e-06
1.22249e-06
1.21754e-06
1.22555e-06
1.22529e-06
1.22743e-06
1.22935e-06
1.22872e-06
1.22573e-06
1.22438e-06
1.22676e-06
1.22386e-06
1.2203e-06
1.22594e-06
1.21543e-06
1.21779e-06
1.21805e-06
1.22899e-06
1.22083e-06
1.22829e-06
1.22511e-06
1.22077e-06
1.22552e-06
1.21558e-06
1.22515e-06
1.22426e-06
1.22194e-06
1.22388e-06
1.22432e-06
1.22343e-06
1.2274e-06
1.22426e-06
1.22541e-06
1.22434e-06
1.22414e-06
1.2276e-06
1.22455e-06
1.22681e-06
1.22516e-06
1.22463e-06
1.223e-06
1.22265e-06
1.22404e-06
1.22739e-06
1.22561e-06
1.22742e-06
1.22525e-06
1.22618e-06
1.2258e-06
1.22819e-06
1.22554e-06
1.22702e-06
1.2278e-06
1.22524e-06
1.22407e-06
1.22717e-06
1.22683e-06
1.22637e-06
1.22319e-06
1.22846e-06
1.22659e-06
1.22467e-06
1.22549e-06
1.22686e-06
1.22795e-06
1.22764e-06
1.22664e-06
1.2286e-06
1.22552e-06
1.22851e-06
1.22662e-06
1.22804e-06
1.22631e-06
1.22669e-06
1.2292e-06
1.22593e-06
1.22794e-06
1.22748e-06
1.22818e-06
1.22795e-06
1.22841e-06
1.22888e-06
1.22911e-06
1.22935e-06
1.22958e-06
1.23004e-06
1.23004e-06
1.23028e-06
1.23004e-06
1.23051e-06
1.23074e-06
1.23074e-06
1.23121e-06
1.23167e-06
1.23167e-06
1.23191e-06
1.23214e-06
1.23261e-06
)
;

boundaryField
{
    inlet
    {
        type            calculated;
        value           uniform -1.225e-06;
    }
    outlet
    {
        type            calculated;
        value           uniform 1.23167e-06;
    }
    yzfaces
    {
        type            empty;
    }
}


// ************************************************************************* //
