/*--------------------------------*- C++ -*----------------------------------*\
| =========                 |                                                 |
| \\      /  F ield         | foam-extend: Open Source CFD                    |
|  \\    /   O peration     | Version:     5.0                                |
|   \\  /    A nd           | Web:         http://www.foam-extend.org         |
|    \\/     M anipulation  |                                                 |
\*---------------------------------------------------------------------------*/
FoamFile
{
    version     2.0;
    format      ascii;
    class       volVectorField;
    location    "3";
    object      U.water;
}
// * * * * * * * * * * * * * * * * * * * * * * * * * * * * * * * * * * * * * //

dimensions      [0 1 -1 0 0 0 0];

internalField   nonuniform List<vector> 
100
(
(1.17233e-05 0 0)
(4.35521e-05 0 0)
(8.42965e-05 0 0)
(0.00012217 0 0)
(0.000165654 0 0)
(0.000207782 0 0)
(0.000241047 0 0)
(0.000285175 0 0)
(0.000326791 0 0)
(0.000355859 0 0)
(0.00039339 0 0)
(0.000439164 0 0)
(0.000485981 0 0)
(0.000521518 0 0)
(0.000567008 0 0)
(0.000600475 0 0)
(0.000624145 0 0)
(0.000668847 0 0)
(0.000725098 0 0)
(0.000765629 0 0)
(0.000805839 0 0)
(0.000855963 0 0)
(0.000880576 0 0)
(0.000925609 0 0)
(0.000951255 0 0)
(0.000985438 0 0)
(0.00104578 0 0)
(0.00107567 0 0)
(0.00111519 0 0)
(0.00115916 0 0)
(0.00119435 0 0)
(0.00123954 0 0)
(0.00127688 0 0)
(0.00130883 0 0)
(0.00134922 0 0)
(0.00138468 0 0)
(0.0014278 0 0)
(0.00146604 0 0)
(0.00150232 0 0)
(0.00154332 0 0)
(0.00157766 0 0)
(0.00161438 0 0)
(0.00165355 0 0)
(0.00169754 0 0)
(0.00174634 0 0)
(0.00178543 0 0)
(0.00182357 0 0)
(0.00186469 0 0)
(0.00190218 0 0)
(0.00194481 0 0)
(0.00199369 0 0)
(0.0020376 0 0)
(0.00207816 0 0)
(0.00212817 0 0)
(0.0021716 0 0)
(0.00221237 0 0)
(0.00226534 0 0)
(0.00232127 0 0)
(0.00237185 0 0)
(0.00242138 0 0)
(0.00248505 0 0)
(0.00255397 0 0)
(0.00261269 0 0)
(0.0026813 0 0)
(0.00276237 0 0)
(0.00285088 0 0)
(0.00294583 0 0)
(0.00304925 0 0)
(0.00317378 0 0)
(0.00331604 0 0)
(0.00348837 0 0)
(0.00370137 0 0)
(0.00396118 0 0)
(0.00427524 0 0)
(0.00461071 0 0)
(0.00487926 0 0)
(0.0049896 0 0)
(0.00500717 0 0)
(0.00501107 0 0)
(0.00501156 0 0)
(0.00501251 0 0)
(0.00501299 0 0)
(0.00501489 0 0)
(0.00501631 0 0)
(0.00501726 0 0)
(0.00501821 0 0)
(0.00501964 0 0)
(0.00502059 0 0)
(0.00502106 0 0)
(0.00502106 0 0)
(0.00502154 0 0)
(0.00502296 0 0)
(0.00502344 0 0)
(0.00502439 0 0)
(0.00502629 0 0)
(0.00502724 0 0)
(0.00502772 0 0)
(0.00502867 0 0)
(0.00503009 0 0)
(0.00502914 0 0)
)
;

boundaryField
{
    inlet
    {
        type            fixedValue;
        value           uniform (0 0 0);
    }
    outlet
    {
        type            zeroGradient;
    }
    yzfaces
    {
        type            empty;
    }
}


// ************************************************************************* //
