/*--------------------------------*- C++ -*----------------------------------*\
| =========                 |                                                 |
| \\      /  F ield         | foam-extend: Open Source CFD                    |
|  \\    /   O peration     | Version:     5.0                                |
|   \\  /    A nd           | Web:         http://www.foam-extend.org         |
|    \\/     M anipulation  |                                                 |
\*---------------------------------------------------------------------------*/
FoamFile
{
    version     2.0;
    format      ascii;
    class       volScalarField;
    location    "6000";
    object      alpha.oil;
}
// * * * * * * * * * * * * * * * * * * * * * * * * * * * * * * * * * * * * * //

dimensions      [0 0 0 0 0 0 0];

internalField   nonuniform List<scalar> 
1000
(
0.22
0.22
0.17
0.19
0.17
0.16
0.15
0.2
0.15
0.16
0.24
0.22
0.24
0.24
0.23
0.15
0.17
0.24
0.2
0.23
0.24
0.19
0.18
0.21
0.18
0.17
0.19
0.22
0.22
0.15
0.15
0.22
0.19
0.19
0.169999
0.219994
0.239984
0.229973
0.159959
0.199945
0.239931
0.199914
0.239896
0.169881
0.22986
0.219837
0.149765
0.198222
0.212706
0.160863
0.197404
0.187343
0.205707
0.18674
0.158515
0.195542
0.139479
0.1857
0.157614
0.148117
0.147885
0.166105
0.221115
0.174769
0.165292
0.21084
0.164716
0.191809
0.163368
0.147744
0.107793
0.110668
0.0735978
0.082042
0.0775796
0.0741974
0.067617
0.0653545
0.0562182
0.0717156
0.0625266
0.0604641
0.058407
0.0474458
0.0488586
0.0582966
0.0424407
0.0588068
0.0507457
0.0502085
0.0319964
0.0384893
0.0415079
0.0309176
0.0266747
0.0283611
0.0257208
0.0219692
0.0107768
0.00835349
0.16
0.22
0.18
0.19
0.24
0.24
0.16
0.24
0.2
0.19
0.17
0.19
0.21
0.17
0.17
0.23
0.15
0.2
0.19
0.22
0.18
0.21
0.17
0.19
0.19
0.199999
0.209993
0.179984
0.209972
0.149961
0.229948
0.159929
0.179862
0.178394
0.182931
0.224966
0.175382
0.220452
0.201371
0.173454
0.218556
0.181656
0.199307
0.198779
0.153191
0.179758
0.143442
0.134184
0.133936
0.169308
0.177884
0.195334
0.132968
0.212399
0.194391
0.202899
0.176147
0.158267
0.210665
0.210314
0.17497
0.139742
0.148227
0.165396
0.182524
0.130191
0.199359
0.138568
0.147198
0.14603
0.152408
0.125451
0.120154
0.0885053
0.0701724
0.0591748
0.0571619
0.0738888
0.0604424
0.0826387
0.0526986
0.0575177
0.0741504
0.0472333
0.0457086
0.0662972
0.0498044
0.0450748
0.0382225
0.0502841
0.0492664
0.0476595
0.0307087
0.02496
0.0275699
0.0272927
0.0196816
0.0152897
0.0111677
0.00929652
0.21
0.21
0.15
0.17
0.24
0.21
0.21
0.2
0.2
0.17
0.22
0.24
0.17
0.19
0.16
0.18
0.19
0.18
0.19
0.209996
0.179874
0.199599
0.209318
0.209043
0.237355
0.219996
0.156088
0.171489
0.134162
0.151449
0.213113
0.185912
0.185418
0.18495
0.202084
0.140181
0.157281
0.183094
0.208832
0.15633
0.130036
0.190376
0.129573
0.206962
0.189406
0.146135
0.154513
0.180041
0.179846
0.153981
0.145252
0.136539
0.161939
0.17877
0.195567
0.186852
0.13574
0.127107
0.12696
0.169089
0.135129
0.126549
0.151703
0.14314
0.185077
0.19335
0.151233
0.159573
0.151178
0.184876
0.199514
0.135956
0.0915479
0.122445
0.0954012
0.0975347
0.0878686
0.0570942
0.0740007
0.0784812
0.0823238
0.0789317
0.0567046
0.0731552
0.0611944
0.0531017
0.0590514
0.0613416
0.050624
0.0546665
0.0317581
0.0341648
0.0358202
0.0313067
0.0270888
0.0260547
0.0294735
0.0167361
0.0172355
0.0129929
0.18
0.18
0.24
0.22
0.18
0.18
0.19
0.22
0.22
0.19
0.16
0.18
0.21
0.21
0.19
0.16
0.199999
0.16983
0.168103
0.152741
0.210458
0.149425
0.181989
0.206195
0.154152
0.179813
0.145376
0.128028
0.187462
0.18723
0.144532
0.127401
0.186666
0.127166
0.14398
0.152288
0.169016
0.135061
0.126476
0.193715
0.176687
0.134481
0.184723
0.192938
0.134099
0.192599
0.142247
0.167225
0.167112
0.200399
0.125167
0.183444
0.166656
0.191526
0.191405
0.141387
0.182855
0.124602
0.149433
0.141053
0.140979
0.174065
0.124281
0.132511
0.1573
0.132428
0.190324
0.148944
0.182045
0.173796
0.123002
0.116882
0.105549
0.0744473
0.10536
0.0754365
0.0957189
0.0641117
0.0656171
0.0669637
0.0544706
0.0694809
0.0701531
0.0644139
0.0590627
0.0682807
0.0596598
0.0620643
0.0561755
0.0482915
0.0345727
0.0307397
0.0466008
0.0387648
0.0284939
0.0312929
0.01809
0.0186706
0.0139517
0.0128658
0.2
0.2
0.23
0.21
0.21
0.2
0.18
0.2
0.23
0.18
0.22
0.17
0.15
0.16
0.189983
0.158919
0.181818
0.217517
0.190795
0.152964
0.143299
0.134173
0.142104
0.17517
0.133289
0.158233
0.174853
0.166491
0.141484
0.133123
0.191302
0.133052
0.166255
0.166203
0.199372
0.124561
0.132793
0.149311
0.124359
0.182293
0.149076
0.19039
0.198578
0.15714
0.148806
0.157009
0.15695
0.181667
0.140335
0.123783
0.173236
0.140194
0.181369
0.131866
0.148302
0.172968
0.131749
0.131712
0.181055
0.123417
0.156289
0.131583
0.164442
0.147968
0.131502
0.164345
0.180748
0.197148
0.123198
0.156025
0.188064
0.155999
0.128745
0.0965416
0.0741713
0.0862953
0.0582089
0.0861978
0.0535863
0.0554917
0.070633
0.0711681
0.0713246
0.0474114
0.0429675
0.0499094
0.0399565
0.0565682
0.0389803
0.0373588
0.0491621
0.0502168
0.0442711
0.0332183
0.0333933
0.0252454
0.0269823
0.0208367
0.0123368
0.00689183
0.16
0.18
0.22
0.22
0.18
0.19
0.23
0.17
0.22
0.23
0.22
0.16
0.21
0.17
0.22
0.219999
0.159905
0.148427
0.182223
0.201478
0.210904
0.179473
0.160145
0.150518
0.166398
0.132602
0.181965
0.165121
0.148463
0.140132
0.140074
0.156503
0.156461
0.148192
0.181084
0.189278
0.172785
0.148071
0.156261
0.148005
0.180855
0.197259
0.139701
0.188971
0.197156
0.131419
0.180671
0.123169
0.147781
0.172389
0.188785
0.196973
0.147716
0.139495
0.164094
0.12306
0.164064
0.164051
0.147637
0.139426
0.147618
0.180414
0.164008
0.172204
0.1886
0.180396
0.196789
0.196779
0.147571
0.147553
0.195997
0.133389
0.123767
0.0724369
0.0848847
0.0751304
0.063591
0.0844148
0.062324
0.0817281
0.0511403
0.0797024
0.076411
0.0701251
0.058378
0.0504771
0.0566833
0.0540864
0.0538413
0.0438601
0.0392712
0.0390642
0.0344949
0.0373201
0.0369825
0.0337284
0.022193
0.0180449
0.0104341
0.00678864
0.149995
0.229981
0.179966
0.239953
0.209941
0.149923
0.189872
0.18988
0.169866
0.219809
0.209781
0.149792
0.219773
0.179799
0.229765
0.15975
0.179778
0.229791
0.209709
0.198889
0.174854
0.176923
0.187368
0.129405
0.178527
0.201085
0.190768
0.148507
0.18109
0.131455
0.147767
0.16408
0.147601
0.147558
0.188508
0.163893
0.172069
0.180248
0.172044
0.18842
0.188413
0.172025
0.180212
0.1884
0.19659
0.139252
0.172014
0.131058
0.15563
0.15563
0.139249
0.14744
0.196588
0.155637
0.122873
0.180216
0.172031
0.139269
0.163851
0.180245
0.196644
0.180271
0.180286
0.122933
0.188508
0.139345
0.196734
0.155757
0.172157
0.180354
0.171896
0.161572
0.109559
0.0958534
0.0676067
0.0981542
0.0597833
0.0846915
0.080854
0.0599251
0.0718043
0.0560053
0.0479519
0.0716247
0.0687715
0.0687977
0.0656312
0.0571923
0.0568554
0.0536581
0.0349843
0.0374264
0.044927
0.0392426
0.0353935
0.0283031
0.0232581
0.019514
0.0153
0.010831
0.163523
0.143906
0.162856
0.162621
0.191123
0.22923
0.152866
0.191183
0.229695
0.191791
0.201742
0.173265
0.154255
0.154407
0.202583
0.153411
0.150936
0.184018
0.133845
0.140203
0.129577
0.162336
0.143456
0.175484
0.124241
0.173099
0.164084
0.130895
0.171557
0.195803
0.195619
0.138496
0.122189
0.138478
0.171065
0.179219
0.130353
0.15481
0.162976
0.146696
0.163016
0.195644
0.138601
0.12231
0.19572
0.154967
0.187615
0.146849
0.187663
0.146885
0.187707
0.138756
0.155096
0.171439
0.155128
0.187805
0.171492
0.138842
0.12252
0.155208
0.196075
0.138906
0.163439
0.138942
0.138959
0.130802
0.188051
0.147193
0.188108
0.196324
0.1795
0.112122
0.0903173
0.107615
0.076389
0.0717116
0.0924127
0.083602
0.083406
0.051998
0.0774768
0.0516196
0.0750539
0.0567104
0.0458863
0.0636365
0.0472699
0.0451748
0.0406452
0.036403
0.0324247
0.0452173
0.0435342
0.0273222
0.0359477
0.0255737
0.0194276
0.0140641
0.0110187
0.00843887
0.186305
0.196744
0.129163
0.146655
0.207222
0.172687
0.189622
0.19767
0.196907
0.204558
0.178113
0.143545
0.159833
0.12567
0.200401
0.157891
0.132402
0.140031
0.131002
0.179079
0.193959
0.184511
0.14341
0.150629
0.118412
0.165396
0.149299
0.117759
0.141321
0.117799
0.149303
0.133678
0.118044
0.17327
0.126115
0.157767
0.189467
0.181712
0.189755
0.118684
0.166277
0.126778
0.134797
0.119023
0.158809
0.18276
0.119276
0.127316
0.191107
0.143429
0.119605
0.135643
0.183638
0.14381
0.143902
0.135994
0.168099
0.160193
0.160292
0.14435
0.18456
0.184669
0.184777
0.160768
0.128689
0.169003
0.128838
0.185314
0.169299
0.193608
0.129149
0.181932
0.14627
0.104796
0.091468
0.063193
0.0725049
0.0731855
0.0777243
0.0568682
0.0690314
0.0732549
0.0768713
0.0582413
0.0680395
0.0565748
0.0542538
0.0544962
0.037023
0.0569742
0.0333023
0.0445252
0.035539
0.0423778
0.0382907
0.0323502
0.0290946
0.0173805
0.017342
0.0100228
0.109121
0.103457
0.130308
0.118007
0.118512
0.132031
0.118962
0.105759
0.125574
0.105671
0.118846
0.118809
0.105614
0.118885
0.10575
0.138934
0.14565
0.145662
0.125616
0.158276
0.157457
0.104243
0.123187
0.115993
0.153857
0.146421
0.132985
0.138965
0.145139
0.107322
0.132917
0.12058
0.133712
0.0958366
0.153877
0.147976
0.129119
0.10364
0.129972
0.149946
0.150418
0.124645
0.151359
0.125423
0.158926
0.0996382
0.153265
0.113639
0.100588
0.154728
0.121471
0.162473
0.135814
0.129427
0.157165
0.157651
0.103135
0.137952
0.13147
0.111067
0.167145
0.10481
0.140216
0.10552
0.141178
0.134589
0.106632
0.121289
0.114586
0.129438
0.108388
0.123434
0.103693
0.104046
0.0819785
0.0872747
0.0966138
0.0672995
0.0646025
0.0691964
0.0765921
0.0542299
0.0742691
0.0621618
0.0540686
0.0520949
0.0553826
0.0453303
0.0555278
0.0523281
0.0382743
0.0300767
0.0379557
0.0384427
0.0266276
0.0311259
0.027606
0.0141203
0.0120106
0.00917647
)
;

boundaryField
{
    inlet
    {
        type            fixedValue;
        value           uniform 0;
    }
    outlet
    {
        type            zeroGradient;
    }
    walls
    {
        type            zeroGradient;
    }
}


// ************************************************************************* //
