/*--------------------------------*- C++ -*----------------------------------*\
| =========                 |                                                 |
| \\      /  F ield         | foam-extend: Open Source CFD                    |
|  \\    /   O peration     | Version:     5.0                                |
|   \\  /    A nd           | Web:         http://www.foam-extend.org         |
|    \\/     M anipulation  |                                                 |
\*---------------------------------------------------------------------------*/
FoamFile
{
    version     2.0;
    format      ascii;
    class       volScalarField;
    location    "6000";
    object      alpha.water;
}
// * * * * * * * * * * * * * * * * * * * * * * * * * * * * * * * * * * * * * //

dimensions      [0 0 0 0 0 0 0];

internalField   nonuniform List<scalar> 
1000
(
0
0
0
0
0
0
0
0
0
0
0
0
0
0
0
0
0
0
0
0
0
0
0
0
0
0
0
0
0
0
0
0
0
0
0
0
0
0
0
0
0
0
0
0
0
0
0
0
0
0
0
0
0
0
0
0
0
0
0
0
0
0
0
0
0
0
4.00298e-13
7.8869e-07
0.000782891
0.0175459
0.0501249
0.0842638
0.0742413
0.0928939
0.0967342
0.0995461
0.0964626
0.0982204
0.0887258
0.117934
0.108453
0.109906
0.111326
0.0949228
0.101811
0.127035
0.0980803
0.142238
0.131769
0.139858
0.0967427
0.123561
0.144758
0.12019
0.114803
0.136526
0.145486
0.155066
0.108044
0.124193
0
0
0
0
0
0
0
0
0
0
0
0
0
0
0
0
0
0
0
0
0
0
0
0
0
0
0
0
0
0
0
0
0
0
0
0
0
0
0
0
0
0
0
0
0
0
0
0
0
0
0
0
0
0
0
0
0
0
0
0
0
0
0
0
0
0
0
1.86424e-11
4.16794e-06
0.00155607
0.023869
0.0616447
0.0925652
0.0874238
0.0785636
0.0715333
0.0730986
0.0992265
0.0861614
0.12364
0.0842593
0.0960442
0.129864
0.0881957
0.0892373
0.135374
0.109093
0.104804
0.0943996
0.131263
0.139498
0.148166
0.107101
0.0959437
0.116718
0.131997
0.114694
0.110244
0.105615
0.129744
0
0
0
0
0
0
0
0
0
0
0
0
0
0
0
0
0
0
0
0
0
0
0
0
0
0
0
0
0
0
0
0
0
0
0
0
0
0
0
0
0
0
0
0
0
0
0
0
0
0
0
0
0
0
0
0
0
0
0
0
0
0
0
0
0
0
0
0
3.82401e-11
7.46151e-06
0.0027851
0.0274128
0.0474313
0.0853189
0.0852624
0.0993635
0.0996052
0.0702315
0.0953079
0.107153
0.119491
0.122163
0.093579
0.126644
0.112998
0.103974
0.12224
0.135703
0.121077
0.140799
0.0898378
0.103183
0.117104
0.112943
0.108553
0.116928
0.152305
0.108814
0.138822
0.157247
0
0
0
0
0
0
0
0
0
0
0
0
0
0
0
0
0
0
0
0
0
0
0
0
0
0
0
0
0
0
0
0
0
0
0
0
0
0
0
0
0
0
0
0
0
0
0
0
0
0
0
0
0
0
0
0
0
0
0
0
0
0
0
0
0
0
0
0
1.22972e-11
4.18024e-06
0.00138815
0.0183161
0.0490884
0.0542059
0.0910697
0.0774066
0.107324
0.079106
0.0856232
0.0922504
0.0792393
0.105616
0.112759
0.109667
0.10625
0.129541
0.121058
0.134436
0.131435
0.122359
0.0949693
0.0903494
0.146582
0.137445
0.114956
0.143242
0.10017
0.122551
0.118564
0.157382
0
0
0
0
0
0
0
0
0
0
0
0
0
0
0
0
0
0
0
0
0
0
0
0
0
0
0
0
0
0
0
0
0
0
0
0
0
0
0
0
0
0
0
0
0
0
0
0
0
0
0
0
0
0
0
0
0
0
0
0
0
0
0
0
0
0
0
0
6.21874e-13
8.38236e-07
0.00093898
0.0195889
0.0592121
0.0740702
0.0700586
0.0911632
0.0680359
0.106887
0.0719041
0.0780771
0.104288
0.111568
0.119153
0.084681
0.0805881
0.0980362
0.083007
0.123371
0.0914427
0.092729
0.12924
0.143665
0.140693
0.118844
0.133948
0.11744
0.146537
0.143652
0.119758
0.108716
0
0
0
0
0
0
0
0
0
0
0
0
0
0
0
0
0
0
0
0
0
0
0
0
0
0
0
0
0
0
0
0
0
0
0
0
0
0
0
0
0
0
0
0
0
0
0
0
0
0
0
0
0
0
0
0
0
0
0
0
0
0
0
0
0
0
0
0
3.60859e-13
6.17866e-07
0.000870684
0.0169252
0.0553809
0.0554055
0.0764105
0.0770254
0.0712137
0.10048
0.0800841
0.110506
0.0738508
0.119902
0.122585
0.119997
0.106455
0.0974773
0.1155
0.117576
0.125418
0.110407
0.106395
0.114181
0.110141
0.130787
0.146269
0.156395
0.127292
0.130493
0.105958
0.108769
0
0
0
0
0
0
0
0
0
0
0
0
0
0
0
0
0
0
0
0
0
0
0
0
0
0
0
0
0
0
0
0
0
0
0
0
0
0
0
0
0
0
0
0
0
0
0
0
0
0
0
0
0
0
0
0
0
0
0
0
0
0
0
0
0
0
0
0
4.83271e-15
9.02115e-08
0.000306358
0.012744
0.0438924
0.0664079
0.0598709
0.0966686
0.0667008
0.100384
0.103616
0.0821973
0.103378
0.0854359
0.0765843
0.118981
0.121286
0.12894
0.131477
0.122885
0.130802
0.133331
0.0946023
0.107953
0.140222
0.137042
0.140035
0.130313
0.1266
0.129476
0.132699
0.143708
0
0
0
0
0
0
0
0
0
0
0
0
0
0
0
0
0
0
0
0
0
0
0
0
0
0
0
0
0
0
0
0
0
0
0
0
0
0
0
0
0
0
0
0
0
0
0
0
0
0
0
0
0
0
0
0
0
0
0
0
0
0
0
0
0
0
0
0
5.89565e-14
3.41423e-07
0.000619548
0.0127948
0.0373837
0.0713845
0.0677299
0.0718432
0.101163
0.10083
0.108766
0.0729308
0.113698
0.08097
0.12341
0.0999067
0.0856504
0.125007
0.0998674
0.10155
0.0975248
0.0932637
0.088792
0.132079
0.141025
0.100429
0.146989
0.124643
0.114215
0.103172
0.105526
0.122719
0
0
0
0
0
0
0
0
0
0
0
0
0
0
0
0
0
0
0
0
0
0
0
0
0
0
0
0
0
0
0
0
0
0
0
0
0
0
0
0
0
0
0
0
0
0
0
0
0
0
0
0
0
0
0
0
0
0
0
0
0
0
0
0
0
0
0
0
9.72802e-19
1.4328e-09
3.07667e-05
0.00488233
0.0376707
0.0641497
0.0766311
0.0622669
0.0776327
0.0848408
0.0964865
0.0755187
0.0961726
0.108073
0.120473
0.0975745
0.120207
0.106698
0.10865
0.116156
0.0845562
0.137214
0.0876543
0.124476
0.108839
0.141563
0.14486
0.141981
0.152203
0.115749
0.146225
0.136682
0
0
0
0
0
0
0
0
0
0
0
0
0
0
0
0
0
0
0
0
0
0
0
0
0
0
0
0
0
0
0
0
0
0
0
0
0
0
0
0
0
0
0
0
0
0
0
0
0
0
0
0
0
0
0
0
0
0
0
0
0
0
0
0
0
0
0
0
0
1.45897e-14
1.05667e-07
0.000261968
0.00816868
0.0348363
0.0498302
0.0669829
0.0875246
0.0701049
0.0725377
0.082972
0.0981879
0.0747552
0.107812
0.0969516
0.0898241
0.091792
0.103665
0.0909703
0.11873
0.121876
0.098
0.0835841
0.113827
0.128598
0.102434
0.136134
0.147256
0.099849
0.109883
0.128243
)
;

boundaryField
{
    inlet
    {
        type            fixedValue;
        value           uniform 0.1;
    }
    outlet
    {
        type            zeroGradient;
    }
    walls
    {
        type            zeroGradient;
    }
}


// ************************************************************************* //
