/*--------------------------------*- C++ -*----------------------------------*\
| =========                 |                                                 |
| \\      /  F ield         | foam-extend: Open Source CFD                    |
|  \\    /   O peration     | Version:     5.0                                |
|   \\  /    A nd           | Web:         http://www.foam-extend.org         |
|    \\/     M anipulation  |                                                 |
\*---------------------------------------------------------------------------*/
FoamFile
{
    version     2.0;
    format      ascii;
    class       volScalarField;
    location    "6000";
    object      alpha.gas;
}
// * * * * * * * * * * * * * * * * * * * * * * * * * * * * * * * * * * * * * //

dimensions      [0 0 0 0 0 0 0];

internalField   nonuniform List<scalar> 
1000
(
0
0
0
0
0
0
0
0
0
0
0
0
0
0
2.63335e-237
3.45477e-137
2.33572e-100
1.58248e-58
7.48892e-45
7.8643e-33
9.43898e-23
2.62609e-20
1.36108e-18
1.67714e-17
9.63864e-17
1.2498e-14
5.65355e-13
5.5045e-12
1.78045e-11
8.29029e-11
7.78381e-11
3.78767e-10
6.78538e-10
3.43595e-08
1.04944e-06
5.77617e-06
1.61503e-05
2.68581e-05
4.11508e-05
5.54523e-05
6.94365e-05
8.62272e-05
0.000104066
0.000119136
0.000140088
0.000163035
0.000235076
0.00177782
0.00729391
0.00913743
0.0125965
0.0126567
0.0142925
0.0132598
0.0114846
0.0144584
0.0105205
0.0143005
0.012386
0.0118831
0.0121147
0.013895
0.0188847
0.0152315
0.0147083
0.0191602
0.0152843
0.0181898
0.015849
0.0147105
0.0120819
0.0150679
0.0121609
0.0150642
0.0156862
0.0162564
0.0159204
0.0164251
0.015056
0.0203504
0.0190206
0.0196299
0.0202673
0.0176314
0.01933
0.0246681
0.019479
0.0289549
0.0274857
0.0299331
0.0212609
0.0279497
0.0337338
0.0288919
0.0285224
0.0351127
0.0387937
0.0429651
0.0311796
0.0374534
0
0
0
0
0
0
0
0
0
0
0
3.5708e-303
0
1.746e-153
1.51774e-79
4.75079e-48
3.23702e-36
2.06695e-22
6.20857e-18
7.05723e-14
1.34722e-10
2.03975e-09
9.61605e-09
3.08946e-08
8.66676e-08
1.20016e-06
7.09222e-06
1.58935e-05
2.82654e-05
3.89535e-05
5.23448e-05
7.14489e-05
0.000137897
0.00160643
0.00706858
0.0150343
0.0146179
0.0195476
0.0186291
0.0165456
0.0214438
0.0183441
0.0206935
0.0212208
0.0168089
0.0202417
0.0165575
0.0158158
0.0160636
0.020692
0.0221161
0.0246656
0.0170319
0.0276015
0.0256089
0.0271012
0.0238534
0.0217328
0.0293351
0.0296862
0.0250302
0.0202582
0.0217729
0.0246038
0.0274756
0.0198094
0.0306408
0.0214324
0.0227979
0.0224138
0.0237233
0.0229047
0.0272811
0.0240709
0.021264
0.0192919
0.0197395
0.0268848
0.0233962
0.0337217
0.023042
0.026438
0.0359855
0.024571
0.0250541
0.0383285
0.0311031
0.0301214
0.0273779
0.0384526
0.0412353
0.0441745
0.03219
0.0290963
0.0357122
0.0407102
0.0356248
0.0344663
0.0332169
0.040959
2.28899e-218
2.04971e-179
4.95296e-156
9.0104e-152
4.04667e-143
3.08998e-131
2.73127e-124
4.50014e-123
4.98607e-121
2.73115e-117
1.97909e-114
4.18834e-104
0
1.19244e-52
5.72664e-29
5.8779e-19
4.55211e-15
2.08909e-10
3.46029e-08
4.3878e-06
0.000126388
0.000400561
0.000681512
0.000957165
0.00264458
0.0100041
0.0139116
0.018511
0.0158384
0.0185509
0.0268873
0.0240885
0.0245816
0.0250497
0.0279161
0.0198186
0.0227188
0.0269064
0.031168
0.0236705
0.0199639
0.0296239
0.0204266
0.0330376
0.030594
0.0238647
0.0254873
0.0299589
0.0301544
0.0260187
0.0247484
0.0234611
0.0280609
0.0312299
0.0344327
0.0331475
0.0242602
0.0228925
0.0230396
0.0309111
0.0248712
0.0234508
0.0282971
0.0268599
0.0349232
0.0366504
0.0287672
0.0304266
0.028822
0.0351165
0.0377012
0.0266307
0.0210208
0.0322362
0.0293365
0.0331018
0.0325263
0.0226743
0.0306915
0.0343657
0.0381857
0.0389055
0.0297165
0.0402006
0.0358075
0.032924
0.0387083
0.0429554
0.0382992
0.0445344
0.028404
0.0326518
0.0370755
0.0357502
0.0343587
0.0370173
0.0482211
0.0344502
0.0439426
0.0497596
8.44813e-76
6.99057e-63
4.64827e-55
1.08872e-53
7.09912e-51
6.20117e-47
1.25214e-44
3.45819e-44
1.63049e-43
2.52205e-42
2.00997e-41
5.85917e-38
0
2.50706e-20
1.22968e-12
9.67836e-09
9.8165e-07
0.000169522
0.00189664
0.00725856
0.0195418
0.0205753
0.0280109
0.0338047
0.0258477
0.0301871
0.0246239
0.021972
0.0325381
0.0327698
0.0254677
0.0225993
0.0333341
0.0228344
0.0260195
0.0277117
0.0309836
0.0249388
0.0235237
0.0362854
0.0333132
0.0255189
0.0352765
0.0370619
0.0259011
0.0374014
0.0277531
0.0327749
0.032888
0.039601
0.0248328
0.0365556
0.0333442
0.0384744
0.0385952
0.0286131
0.0371448
0.0253977
0.0305672
0.0289466
0.0290207
0.0359346
0.0257189
0.0274893
0.0327001
0.0275717
0.0396762
0.0310563
0.0379554
0.0362001
0.02561
0.0248017
0.0253629
0.0213468
0.0335702
0.027157
0.0369574
0.0267823
0.0287598
0.0307859
0.0262902
0.0349036
0.0370883
0.0359194
0.0346875
0.0421781
0.0392823
0.0434993
0.0423898
0.0393495
0.030458
0.0289109
0.0468171
0.0437906
0.0365498
0.0454655
0.0317399
0.0387781
0.037484
0.049752
2.53132e-28
4.11175e-24
1.52558e-21
3.81701e-21
3.2025e-20
6.04688e-19
3.08124e-18
4.55846e-18
8.2167e-18
1.67547e-17
3.80557e-17
4.43937e-16
1.02011e-16
2.09207e-09
1.65114e-05
0.00108085
0.00818226
0.0224828
0.0292045
0.0270358
0.026701
0.025827
0.0278964
0.0348301
0.0267107
0.0317669
0.0351474
0.0335085
0.0285157
0.0268772
0.0386983
0.0269475
0.0337445
0.0337967
0.0406283
0.025439
0.0272066
0.0306893
0.0256411
0.0377074
0.0309245
0.0396102
0.0414225
0.0328596
0.031194
0.0329913
0.0330503
0.0383329
0.0296654
0.0262173
0.0367643
0.0298056
0.0386312
0.0281345
0.0316978
0.0370319
0.0282509
0.0282881
0.0389455
0.0265828
0.0337106
0.0284172
0.035558
0.0320317
0.0284984
0.0356546
0.0392516
0.0428519
0.0268017
0.0339743
0.0409973
0.0344124
0.0320432
0.0293882
0.0257701
0.0325415
0.0237552
0.0369153
0.0245097
0.0264312
0.035079
0.037264
0.0395227
0.0279077
0.0264445
0.0320544
0.0270365
0.0400603
0.029577
0.0299122
0.0415984
0.0461185
0.0450359
0.0379381
0.0426583
0.0373145
0.0464807
0.0455109
0.0379048
0.0343923
1.13251e-12
2.31321e-11
1.88789e-10
2.64888e-10
5.95278e-10
2.49735e-09
6.0373e-09
5.30663e-09
8.91738e-09
1.25417e-08
1.79611e-08
4.20015e-08
2.02325e-08
2.58984e-08
1.70137e-08
6.20107e-07
9.4737e-05
0.00157277
0.00777677
0.018522
0.0290963
0.0305268
0.0298549
0.0294816
0.0336019
0.0273981
0.0380354
0.0348788
0.0315373
0.0298681
0.0299257
0.033497
0.0335393
0.0318078
0.0389157
0.0407218
0.0372147
0.0319295
0.0337388
0.0319954
0.0391446
0.0427409
0.030299
0.0410292
0.0428443
0.0285815
0.0393289
0.0268309
0.0322189
0.0376114
0.041215
0.0430269
0.0322838
0.0305053
0.0359059
0.0269403
0.0359365
0.0359486
0.0323634
0.0305744
0.0323817
0.0395864
0.0359921
0.0377965
0.0414003
0.0396037
0.0432105
0.0432211
0.0324295
0.0324464
0.0431323
0.0296861
0.0308524
0.0221576
0.0287048
0.0278443
0.0251953
0.0351052
0.0275919
0.0377661
0.0250089
0.0403953
0.0410043
0.0398781
0.0351671
0.0320456
0.037817
0.0383377
0.0407407
0.0357333
0.0343334
0.0367553
0.035364
0.0418933
0.0467481
0.049877
0.0405145
0.0414616
0.0336077
0.0344422
4.52297e-06
1.87554e-05
3.36839e-05
4.707e-05
5.85628e-05
7.73591e-05
0.000127545
0.000119814
0.000133571
0.000190857
0.000218624
0.000207826
0.000227441
0.000201383
0.000235458
0.000249753
0.00022238
0.000208847
0.000291476
0.00111136
0.00514565
0.013077
0.0226324
0.0205953
0.031473
0.0389146
0.0392317
0.0314927
0.0389101
0.0285453
0.0322333
0.0359204
0.032399
0.0324416
0.0414922
0.0361073
0.0379312
0.0397522
0.0379559
0.0415804
0.0415869
0.037975
0.039788
0.0415997
0.0434098
0.0307483
0.0379861
0.0289417
0.03437
0.0343698
0.0307512
0.0325599
0.0434118
0.0343633
0.0271267
0.0397839
0.0379693
0.0307314
0.036149
0.0397549
0.0433564
0.0397289
0.0397143
0.0270673
0.0414916
0.0306553
0.0432663
0.0342429
0.037843
0.039646
0.0377974
0.035684
0.0265486
0.0277387
0.0225224
0.0351772
0.0235159
0.0349249
0.03553
0.0278777
0.0348179
0.0285587
0.0254637
0.0393941
0.0399429
0.0422619
0.0428918
0.0399224
0.0423427
0.0430105
0.0304134
0.0346203
0.0448514
0.0437152
0.0445716
0.0413844
0.0401422
0.0410097
0.0420009
0.0454615
0.00647687
0.00609368
0.00714429
0.0073792
0.00887732
0.0107699
0.00713412
0.00881677
0.0103052
0.00820946
0.0082575
0.00673466
0.00574535
0.00559304
0.00741728
0.00658888
0.00906352
0.0159822
0.0161547
0.0197972
0.0204229
0.0276642
0.0265443
0.0345163
0.0257587
0.0369014
0.0359164
0.0291049
0.0384427
0.0441972
0.0443806
0.0315038
0.0278114
0.0315217
0.0389355
0.0407808
0.0296472
0.0351904
0.037024
0.0333036
0.0369842
0.0443557
0.0313989
0.0276897
0.0442803
0.0350333
0.0423849
0.0331511
0.0423374
0.0331151
0.0422928
0.0312439
0.0349039
0.0385605
0.0348723
0.0421954
0.038508
0.0311583
0.0274799
0.0347919
0.0439246
0.0310939
0.036561
0.031058
0.0310406
0.0291982
0.0419494
0.0328069
0.0418924
0.0436753
0.03988
0.0250832
0.022299
0.0310005
0.0258811
0.0264451
0.0364248
0.0355681
0.0378276
0.0250712
0.0388252
0.0274103
0.0415359
0.0333829
0.0284633
0.041356
0.0328627
0.0332751
0.03183
0.0303334
0.0287834
0.0427041
0.0454404
0.0322486
0.0470634
0.0397838
0.036357
0.0327643
0.0334553
0.0388426
0.0336952
0.0332557
0.0208373
0.0233454
0.0327781
0.0273131
0.030378
0.0323301
0.0330929
0.0354424
0.0318872
0.0264549
0.0301675
0.0243298
0.0395995
0.032109
0.027598
0.0299685
0.028998
0.0409207
0.0460408
0.0454889
0.0365898
0.0393709
0.0315882
0.0446042
0.0407008
0.0322412
0.0386787
0.0322008
0.0406969
0.0363223
0.0319561
0.0467302
0.0338849
0.0422328
0.0505329
0.048288
0.0502454
0.0313159
0.0437234
0.033222
0.0352028
0.030977
0.0411908
0.0472398
0.0307241
0.0326837
0.0488932
0.0365712
0.0303951
0.034357
0.0463618
0.0361901
0.0360976
0.0340058
0.041901
0.0398066
0.0397082
0.0356496
0.0454402
0.0453309
0.045223
0.0392315
0.0313108
0.0409966
0.0311618
0.0446859
0.0407012
0.0463922
0.0308203
0.0431858
0.0360596
0.031054
0.0319009
0.02454
0.0298624
0.0319737
0.0357893
0.0276131
0.034796
0.0386724
0.0426556
0.0341842
0.0417533
0.0367276
0.0370966
0.0393476
0.0284208
0.0458113
0.0290434
0.0409984
0.0356218
0.0460591
0.0468498
0.0456685
0.0487027
0.0368702
0.0464326
0.0432951
0.060879
0.056543
0.0696919
0.0619926
0.0614879
0.0679687
0.0610376
0.0542408
0.0644258
0.0543289
0.061154
0.0611914
0.0543861
0.0611155
0.0542495
0.071066
0.0743496
0.0743378
0.064384
0.0817235
0.0825434
0.0557566
0.0668132
0.064007
0.086143
0.0835794
0.0770153
0.0810347
0.0848612
0.0626779
0.077083
0.0694202
0.0762882
0.0541634
0.0861229
0.0820235
0.0708812
0.0563597
0.0700279
0.0800536
0.0795819
0.0653545
0.0786414
0.0645769
0.0810737
0.0503618
0.0767346
0.0563614
0.0494118
0.0752724
0.0585294
0.0775273
0.0641857
0.0605731
0.0728351
0.0723487
0.0468649
0.0620482
0.0585303
0.0489328
0.0728545
0.0451904
0.0597843
0.0444801
0.0588218
0.0554107
0.0433677
0.0487114
0.045414
0.0505615
0.0416123
0.0463041
0.0381378
0.0411172
0.0381913
0.0457424
0.0558616
0.0425955
0.0428598
0.0478316
0.0552199
0.0410149
0.0579193
0.0508866
0.0461073
0.0461131
0.0509523
0.0436993
0.0557422
0.055796
0.0437257
0.0363392
0.0482173
0.0529596
0.040938
0.0527399
0.0551382
0.0360308
0.0381064
0.0425804
)
;

boundaryField
{
    inlet
    {
        type            fixedValue;
        value           uniform 0.1;
    }
    outlet
    {
        type            zeroGradient;
    }
    walls
    {
        type            zeroGradient;
    }
}


// ************************************************************************* //
