/*--------------------------------*- C++ -*----------------------------------*\
| =========                 |                                                 |
| \\      /  F ield         | foam-extend: Open Source CFD                    |
|  \\    /   O peration     | Version:     5.0                                |
|   \\  /    A nd           | Web:         http://www.foam-extend.org         |
|    \\/     M anipulation  |                                                 |
\*---------------------------------------------------------------------------*/
FoamFile
{
    version     2.0;
    format      ascii;
    class       volScalarField;
    location    "6000";
    object      p;
}
// * * * * * * * * * * * * * * * * * * * * * * * * * * * * * * * * * * * * * //

dimensions      [1 -1 -2 0 0 0 0];

internalField   nonuniform List<scalar> 
1000
(
0.100909
0.102676
0.104417
0.106141
0.107853
0.109558
0.111257
0.112951
0.114641
0.116327
0.118009
0.119688
0.121362
0.123032
0.124697
0.126355
0.128004
0.12964
0.13126
0.132861
0.134438
0.135989
0.137518
0.139026
0.14052
0.142002
0.14347
0.144926
0.146372
0.147812
0.149247
0.15068
0.152111
0.153546
0.154988
0.156431
0.15787
0.159308
0.160747
0.162186
0.163626
0.165067
0.166508
0.16795
0.169391
0.170831
0.172269
0.173715
0.175185
0.176654
0.178119
0.179582
0.181046
0.182512
0.183978
0.185446
0.186915
0.188385
0.189856
0.191328
0.1928
0.194273
0.195746
0.197218
0.198689
0.200156
0.201616
0.203061
0.204484
0.206079
0.208021
0.210041
0.212028
0.213989
0.215906
0.21778
0.219615
0.221415
0.223179
0.224911
0.226604
0.228263
0.229888
0.231477
0.233037
0.234566
0.236056
0.237517
0.238939
0.240325
0.24167
0.242984
0.24426
0.245492
0.246689
0.247847
0.24896
0.250024
0.251033
0.251994
0.100879
0.102625
0.104355
0.106073
0.107783
0.109486
0.111183
0.112876
0.114566
0.116252
0.117934
0.119613
0.121288
0.122959
0.124625
0.126286
0.127938
0.129578
0.131201
0.132805
0.134384
0.135934
0.137459
0.138963
0.140453
0.141937
0.143404
0.144857
0.1463
0.147738
0.149172
0.150602
0.152028
0.153461
0.154916
0.156365
0.157804
0.159242
0.16068
0.16212
0.16356
0.165001
0.166443
0.167886
0.169329
0.170772
0.172217
0.173667
0.175126
0.176589
0.178052
0.179515
0.180979
0.182444
0.183911
0.185379
0.186848
0.188318
0.18979
0.191262
0.192735
0.194208
0.195682
0.197155
0.198628
0.200099
0.201567
0.203031
0.204497
0.206013
0.207794
0.209853
0.211906
0.213891
0.215819
0.2177
0.219539
0.221342
0.223106
0.22484
0.226531
0.228191
0.229818
0.231406
0.232965
0.234495
0.235985
0.237443
0.238864
0.240252
0.2416
0.242913
0.244185
0.245418
0.246616
0.247774
0.248884
0.249946
0.25096
0.251925
0.100864
0.102588
0.104305
0.106015
0.107719
0.109418
0.111114
0.112806
0.114495
0.116181
0.117863
0.119543
0.121218
0.122891
0.124559
0.126225
0.127885
0.129532
0.131162
0.132776
0.13436
0.135905
0.137421
0.138914
0.140396
0.141894
0.143364
0.144812
0.14625
0.147684
0.149116
0.150547
0.151978
0.153412
0.154854
0.156296
0.157735
0.159173
0.160612
0.162052
0.163492
0.164934
0.166377
0.16782
0.169264
0.17071
0.172158
0.17361
0.175066
0.176526
0.177988
0.179451
0.180915
0.18238
0.183847
0.185315
0.186784
0.188255
0.189726
0.191199
0.192672
0.194147
0.195622
0.197097
0.198573
0.200049
0.201525
0.203006
0.204497
0.206018
0.207623
0.209581
0.211717
0.213773
0.215732
0.217626
0.219468
0.221266
0.223034
0.224767
0.226463
0.228124
0.229747
0.23134
0.232897
0.234423
0.235916
0.237374
0.238794
0.24018
0.241524
0.242837
0.244114
0.245349
0.246545
0.247702
0.248814
0.249874
0.250892
0.25186
0.100853
0.102559
0.104262
0.105962
0.10766
0.109355
0.111048
0.112739
0.114427
0.116112
0.117795
0.119475
0.121152
0.122826
0.124497
0.126169
0.127844
0.129502
0.131141
0.132784
0.134392
0.135924
0.137429
0.138911
0.140383
0.141854
0.143314
0.144759
0.146196
0.147629
0.14906
0.15049
0.151921
0.153354
0.154792
0.15623
0.157668
0.159107
0.160546
0.161986
0.163427
0.164869
0.166312
0.167756
0.169202
0.170649
0.172099
0.173551
0.175007
0.176466
0.177927
0.179389
0.180853
0.182318
0.183785
0.185253
0.186722
0.188193
0.189665
0.191138
0.192612
0.194088
0.195564
0.197042
0.198521
0.200001
0.201484
0.202972
0.20447
0.205983
0.207537
0.209402
0.211556
0.213637
0.215628
0.217532
0.219386
0.221188
0.222956
0.224689
0.226386
0.22805
0.229677
0.231268
0.232825
0.234352
0.235844
0.237302
0.238722
0.240105
0.241451
0.242765
0.244046
0.245283
0.246477
0.247633
0.248739
0.249803
0.250818
0.251785
0.100844
0.102532
0.104222
0.105912
0.107603
0.109294
0.110984
0.112674
0.114361
0.116047
0.11773
0.119411
0.121089
0.122764
0.124434
0.12611
0.127832
0.129534
0.131177
0.132793
0.134378
0.135918
0.137425
0.138907
0.140373
0.141831
0.143278
0.144717
0.146149
0.147579
0.149007
0.150436
0.151865
0.153297
0.154731
0.156167
0.157604
0.159042
0.160481
0.161921
0.163362
0.164804
0.166248
0.167693
0.16914
0.170588
0.172039
0.173492
0.174947
0.176405
0.177866
0.179328
0.180791
0.182256
0.183723
0.185191
0.18666
0.188131
0.189604
0.191077
0.192553
0.194029
0.195507
0.196987
0.198469
0.199953
0.20144
0.202932
0.204431
0.205937
0.207464
0.209264
0.211422
0.213515
0.215509
0.217431
0.21929
0.221107
0.222875
0.22461
0.226311
0.227976
0.229604
0.231193
0.23275
0.234276
0.235766
0.237226
0.238644
0.240028
0.24138
0.242697
0.243975
0.245212
0.246409
0.247562
0.248672
0.249733
0.250742
0.251699
0.100834
0.102504
0.10418
0.105861
0.107546
0.109233
0.110922
0.11261
0.114298
0.115984
0.117668
0.11935
0.121029
0.122707
0.124385
0.126065
0.127751
0.129437
0.131125
0.132783
0.134382
0.135927
0.137435
0.138912
0.140373
0.141818
0.143254
0.144683
0.146109
0.147533
0.148957
0.150383
0.15181
0.15324
0.154672
0.156106
0.157541
0.158978
0.160417
0.161857
0.163298
0.16474
0.166184
0.16763
0.169077
0.170526
0.171977
0.173431
0.174886
0.176344
0.177804
0.179266
0.180729
0.182194
0.183661
0.185129
0.186598
0.188069
0.189542
0.191016
0.192492
0.19397
0.195449
0.196931
0.198415
0.199901
0.201392
0.202886
0.204384
0.205885
0.207393
0.209155
0.211295
0.213388
0.215396
0.217328
0.219197
0.221023
0.222797
0.224535
0.226233
0.227901
0.22953
0.231122
0.232679
0.234203
0.235695
0.237151
0.238571
0.239955
0.241304
0.242621
0.2439
0.245141
0.24634
0.247494
0.248599
0.249658
0.250666
0.251623
0.10082
0.102471
0.104134
0.105807
0.107486
0.109172
0.11086
0.112548
0.114236
0.115923
0.117607
0.11929
0.120971
0.122652
0.124333
0.126017
0.127704
0.129383
0.131044
0.132678
0.134302
0.135898
0.137432
0.138907
0.140366
0.141805
0.143229
0.144649
0.146068
0.147487
0.148907
0.150329
0.151754
0.153181
0.154611
0.156043
0.157478
0.158914
0.160352
0.161792
0.163233
0.164676
0.16612
0.167566
0.169013
0.170463
0.171914
0.173368
0.174824
0.176281
0.177741
0.179202
0.180666
0.182131
0.183597
0.185065
0.186535
0.188006
0.189479
0.190954
0.19243
0.193909
0.195389
0.196872
0.198358
0.199847
0.201339
0.202835
0.204334
0.205835
0.207341
0.209039
0.211158
0.213269
0.215281
0.21723
0.219106
0.220939
0.222718
0.224454
0.226156
0.22782
0.22945
0.231047
0.232606
0.234131
0.235621
0.237076
0.238496
0.23988
0.241227
0.242545
0.243828
0.245068
0.246266
0.247418
0.248524
0.249583
0.250594
0.251555
0.100803
0.102433
0.104085
0.105751
0.107429
0.109114
0.110804
0.112494
0.114183
0.11587
0.117555
0.119238
0.120919
0.122601
0.124284
0.125973
0.12767
0.129363
0.131019
0.13265
0.134255
0.135831
0.137361
0.138853
0.140314
0.141758
0.143184
0.144603
0.14602
0.147436
0.148853
0.150272
0.151694
0.15312
0.154548
0.15598
0.157413
0.158849
0.160287
0.161726
0.163168
0.16461
0.166055
0.167501
0.168949
0.170399
0.17185
0.173304
0.17476
0.176217
0.177677
0.179138
0.180602
0.182066
0.183533
0.185001
0.186471
0.187942
0.189416
0.190891
0.192367
0.193847
0.195328
0.196812
0.198299
0.19979
0.201284
0.202782
0.204283
0.205783
0.207279
0.208964
0.21103
0.213144
0.215168
0.217124
0.21902
0.220854
0.222637
0.224374
0.226079
0.227743
0.229376
0.230969
0.232527
0.234054
0.235542
0.236996
0.238415
0.2398
0.24115
0.24247
0.243752
0.24499
0.246192
0.247343
0.248448
0.249506
0.250518
0.251479
0.100779
0.102388
0.104033
0.105696
0.107374
0.109064
0.110757
0.112451
0.114144
0.115833
0.117518
0.1192
0.120882
0.122564
0.124249
0.125934
0.12762
0.1293
0.130958
0.132593
0.134197
0.135765
0.137296
0.138794
0.140263
0.14171
0.143138
0.144557
0.145971
0.147384
0.148798
0.150215
0.151636
0.15306
0.154487
0.155918
0.157351
0.158786
0.160224
0.161663
0.163104
0.164547
0.165992
0.167438
0.168886
0.170336
0.171788
0.173241
0.174697
0.176155
0.177614
0.179075
0.180539
0.182003
0.18347
0.184938
0.186408
0.187879
0.189353
0.190828
0.192305
0.193785
0.195267
0.196751
0.198239
0.199731
0.201227
0.202728
0.204234
0.205748
0.207271
0.208874
0.210853
0.212994
0.215054
0.217025
0.21893
0.220769
0.222557
0.224297
0.226003
0.22767
0.229302
0.230894
0.232453
0.233976
0.235465
0.23692
0.238339
0.239727
0.241074
0.242393
0.243673
0.244916
0.246116
0.247271
0.248378
0.249433
0.250447
0.251407
0.100775
0.102367
0.103999
0.105659
0.107338
0.109028
0.110722
0.112417
0.114109
0.115798
0.117483
0.119166
0.120847
0.122528
0.124211
0.125895
0.127577
0.129253
0.130912
0.13255
0.134156
0.135723
0.137259
0.138762
0.140239
0.141687
0.143114
0.14453
0.145941
0.147349
0.148761
0.150175
0.151594
0.153017
0.154443
0.155873
0.157306
0.158741
0.160179
0.161618
0.163059
0.164502
0.165946
0.167392
0.16884
0.170289
0.171741
0.173194
0.17465
0.176107
0.177567
0.179028
0.180491
0.181955
0.183422
0.18489
0.186359
0.18783
0.189303
0.190778
0.192255
0.193735
0.195217
0.196702
0.19819
0.199682
0.201179
0.202682
0.204192
0.205715
0.207262
0.208862
0.210689
0.212833
0.214952
0.216956
0.21887
0.220704
0.222491
0.224236
0.225941
0.227605
0.229238
0.230829
0.232386
0.233909
0.235399
0.236853
0.238276
0.239661
0.241007
0.242321
0.243604
0.244846
0.246043
0.2472
0.248308
0.24936
0.250372
0.251333
)
;

boundaryField
{
    inlet
    {
        type            fluxPressure;
        gradient        nonuniform List<scalar> 10(0.00363636 0.00363636 0.00363636 0.00363636 0.00363636 0.00363636 0.00363636 0.00363636 0.00363636 0.00363636);
        value           nonuniform List<scalar> 10(0.252176 0.252107 0.252042 0.251966 0.251881 0.251804 0.251737 0.251661 0.251589 0.251515);
    }
    outlet
    {
        type            fixedValue;
        value           uniform 0.1;
    }
    walls
    {
        type            fluxPressure;
        gradient        uniform 0;
        value           nonuniform List<scalar> 
2200
(
0.100909
0.102676
0.104417
0.106141
0.107853
0.109558
0.111257
0.112951
0.114641
0.116327
0.118009
0.119688
0.121362
0.123032
0.124697
0.126355
0.128004
0.12964
0.13126
0.132861
0.134438
0.135989
0.137518
0.139026
0.14052
0.142002
0.14347
0.144926
0.146372
0.147812
0.149247
0.15068
0.152111
0.153546
0.154988
0.156431
0.15787
0.159308
0.160747
0.162186
0.163626
0.165067
0.166508
0.16795
0.169391
0.170831
0.172269
0.173715
0.175185
0.176654
0.178119
0.179582
0.181046
0.182512
0.183978
0.185446
0.186915
0.188385
0.189856
0.191328
0.1928
0.194273
0.195746
0.197218
0.198689
0.200156
0.201616
0.203061
0.204484
0.206079
0.208021
0.210041
0.212028
0.213989
0.215906
0.21778
0.219615
0.221415
0.223179
0.224911
0.226604
0.228263
0.229888
0.231477
0.233037
0.234566
0.236056
0.237517
0.238939
0.240325
0.24167
0.242984
0.24426
0.245492
0.246689
0.247847
0.24896
0.250024
0.251033
0.251994
0.100879
0.102625
0.104355
0.106073
0.107783
0.109486
0.111183
0.112876
0.114566
0.116252
0.117934
0.119613
0.121288
0.122959
0.124625
0.126286
0.127938
0.129578
0.131201
0.132805
0.134384
0.135934
0.137459
0.138963
0.140453
0.141937
0.143404
0.144857
0.1463
0.147738
0.149172
0.150602
0.152028
0.153461
0.154916
0.156365
0.157804
0.159242
0.16068
0.16212
0.16356
0.165001
0.166443
0.167886
0.169329
0.170772
0.172217
0.173667
0.175126
0.176589
0.178052
0.179515
0.180979
0.182444
0.183911
0.185379
0.186848
0.188318
0.18979
0.191262
0.192735
0.194208
0.195682
0.197155
0.198628
0.200099
0.201567
0.203031
0.204497
0.206013
0.207794
0.209853
0.211906
0.213891
0.215819
0.2177
0.219539
0.221342
0.223106
0.22484
0.226531
0.228191
0.229818
0.231406
0.232965
0.234495
0.235985
0.237443
0.238864
0.240252
0.2416
0.242913
0.244185
0.245418
0.246616
0.247774
0.248884
0.249946
0.25096
0.251925
0.100864
0.102588
0.104305
0.106015
0.107719
0.109418
0.111114
0.112806
0.114495
0.116181
0.117863
0.119543
0.121218
0.122891
0.124559
0.126225
0.127885
0.129532
0.131162
0.132776
0.13436
0.135905
0.137421
0.138914
0.140396
0.141894
0.143364
0.144812
0.14625
0.147684
0.149116
0.150547
0.151978
0.153412
0.154854
0.156296
0.157735
0.159173
0.160612
0.162052
0.163492
0.164934
0.166377
0.16782
0.169264
0.17071
0.172158
0.17361
0.175066
0.176526
0.177988
0.179451
0.180915
0.18238
0.183847
0.185315
0.186784
0.188255
0.189726
0.191199
0.192672
0.194147
0.195622
0.197097
0.198573
0.200049
0.201525
0.203006
0.204497
0.206018
0.207623
0.209581
0.211717
0.213773
0.215732
0.217626
0.219468
0.221266
0.223034
0.224767
0.226463
0.228124
0.229747
0.23134
0.232897
0.234423
0.235916
0.237374
0.238794
0.24018
0.241524
0.242837
0.244114
0.245349
0.246545
0.247702
0.248814
0.249874
0.250892
0.25186
0.100853
0.102559
0.104262
0.105962
0.10766
0.109355
0.111048
0.112739
0.114427
0.116112
0.117795
0.119475
0.121152
0.122826
0.124497
0.126169
0.127844
0.129502
0.131141
0.132784
0.134392
0.135924
0.137429
0.138911
0.140383
0.141854
0.143314
0.144759
0.146196
0.147629
0.14906
0.15049
0.151921
0.153354
0.154792
0.15623
0.157668
0.159107
0.160546
0.161986
0.163427
0.164869
0.166312
0.167756
0.169202
0.170649
0.172099
0.173551
0.175007
0.176466
0.177927
0.179389
0.180853
0.182318
0.183785
0.185253
0.186722
0.188193
0.189665
0.191138
0.192612
0.194088
0.195564
0.197042
0.198521
0.200001
0.201484
0.202972
0.20447
0.205983
0.207537
0.209402
0.211556
0.213637
0.215628
0.217532
0.219386
0.221188
0.222956
0.224689
0.226386
0.22805
0.229677
0.231268
0.232825
0.234352
0.235844
0.237302
0.238722
0.240105
0.241451
0.242765
0.244046
0.245283
0.246477
0.247633
0.248739
0.249803
0.250818
0.251785
0.100844
0.102532
0.104222
0.105912
0.107603
0.109294
0.110984
0.112674
0.114361
0.116047
0.11773
0.119411
0.121089
0.122764
0.124434
0.12611
0.127832
0.129534
0.131177
0.132793
0.134378
0.135918
0.137425
0.138907
0.140373
0.141831
0.143278
0.144717
0.146149
0.147579
0.149007
0.150436
0.151865
0.153297
0.154731
0.156167
0.157604
0.159042
0.160481
0.161921
0.163362
0.164804
0.166248
0.167693
0.16914
0.170588
0.172039
0.173492
0.174947
0.176405
0.177866
0.179328
0.180791
0.182256
0.183723
0.185191
0.18666
0.188131
0.189604
0.191077
0.192553
0.194029
0.195507
0.196987
0.198469
0.199953
0.20144
0.202932
0.204431
0.205937
0.207464
0.209264
0.211422
0.213515
0.215509
0.217431
0.21929
0.221107
0.222875
0.22461
0.226311
0.227976
0.229604
0.231193
0.23275
0.234276
0.235766
0.237226
0.238644
0.240028
0.24138
0.242697
0.243975
0.245212
0.246409
0.247562
0.248672
0.249733
0.250742
0.251699
0.100834
0.102504
0.10418
0.105861
0.107546
0.109233
0.110922
0.11261
0.114298
0.115984
0.117668
0.11935
0.121029
0.122707
0.124385
0.126065
0.127751
0.129437
0.131125
0.132783
0.134382
0.135927
0.137435
0.138912
0.140373
0.141818
0.143254
0.144683
0.146109
0.147533
0.148957
0.150383
0.15181
0.15324
0.154672
0.156106
0.157541
0.158978
0.160417
0.161857
0.163298
0.16474
0.166184
0.16763
0.169077
0.170526
0.171977
0.173431
0.174886
0.176344
0.177804
0.179266
0.180729
0.182194
0.183661
0.185129
0.186598
0.188069
0.189542
0.191016
0.192492
0.19397
0.195449
0.196931
0.198415
0.199901
0.201392
0.202886
0.204384
0.205885
0.207393
0.209155
0.211295
0.213388
0.215396
0.217328
0.219197
0.221023
0.222797
0.224535
0.226233
0.227901
0.22953
0.231122
0.232679
0.234203
0.235695
0.237151
0.238571
0.239955
0.241304
0.242621
0.2439
0.245141
0.24634
0.247494
0.248599
0.249658
0.250666
0.251623
0.10082
0.102471
0.104134
0.105807
0.107486
0.109172
0.11086
0.112548
0.114236
0.115923
0.117607
0.11929
0.120971
0.122652
0.124333
0.126017
0.127704
0.129383
0.131044
0.132678
0.134302
0.135898
0.137432
0.138907
0.140366
0.141805
0.143229
0.144649
0.146068
0.147487
0.148907
0.150329
0.151754
0.153181
0.154611
0.156043
0.157478
0.158914
0.160352
0.161792
0.163233
0.164676
0.16612
0.167566
0.169013
0.170463
0.171914
0.173368
0.174824
0.176281
0.177741
0.179202
0.180666
0.182131
0.183597
0.185065
0.186535
0.188006
0.189479
0.190954
0.19243
0.193909
0.195389
0.196872
0.198358
0.199847
0.201339
0.202835
0.204334
0.205835
0.207341
0.209039
0.211158
0.213269
0.215281
0.21723
0.219106
0.220939
0.222718
0.224454
0.226156
0.22782
0.22945
0.231047
0.232606
0.234131
0.235621
0.237076
0.238496
0.23988
0.241227
0.242545
0.243828
0.245068
0.246266
0.247418
0.248524
0.249583
0.250594
0.251555
0.100803
0.102433
0.104085
0.105751
0.107429
0.109114
0.110804
0.112494
0.114183
0.11587
0.117555
0.119238
0.120919
0.122601
0.124284
0.125973
0.12767
0.129363
0.131019
0.13265
0.134255
0.135831
0.137361
0.138853
0.140314
0.141758
0.143184
0.144603
0.14602
0.147436
0.148853
0.150272
0.151694
0.15312
0.154548
0.15598
0.157413
0.158849
0.160287
0.161726
0.163168
0.16461
0.166055
0.167501
0.168949
0.170399
0.17185
0.173304
0.17476
0.176217
0.177677
0.179138
0.180602
0.182066
0.183533
0.185001
0.186471
0.187942
0.189416
0.190891
0.192367
0.193847
0.195328
0.196812
0.198299
0.19979
0.201284
0.202782
0.204283
0.205783
0.207279
0.208964
0.21103
0.213144
0.215168
0.217124
0.21902
0.220854
0.222637
0.224374
0.226079
0.227743
0.229376
0.230969
0.232527
0.234054
0.235542
0.236996
0.238415
0.2398
0.24115
0.24247
0.243752
0.24499
0.246192
0.247343
0.248448
0.249506
0.250518
0.251479
0.100779
0.102388
0.104033
0.105696
0.107374
0.109064
0.110757
0.112451
0.114144
0.115833
0.117518
0.1192
0.120882
0.122564
0.124249
0.125934
0.12762
0.1293
0.130958
0.132593
0.134197
0.135765
0.137296
0.138794
0.140263
0.14171
0.143138
0.144557
0.145971
0.147384
0.148798
0.150215
0.151636
0.15306
0.154487
0.155918
0.157351
0.158786
0.160224
0.161663
0.163104
0.164547
0.165992
0.167438
0.168886
0.170336
0.171788
0.173241
0.174697
0.176155
0.177614
0.179075
0.180539
0.182003
0.18347
0.184938
0.186408
0.187879
0.189353
0.190828
0.192305
0.193785
0.195267
0.196751
0.198239
0.199731
0.201227
0.202728
0.204234
0.205748
0.207271
0.208874
0.210853
0.212994
0.215054
0.217025
0.21893
0.220769
0.222557
0.224297
0.226003
0.22767
0.229302
0.230894
0.232453
0.233976
0.235465
0.23692
0.238339
0.239727
0.241074
0.242393
0.243673
0.244916
0.246116
0.247271
0.248378
0.249433
0.250447
0.251407
0.100775
0.102367
0.103999
0.105659
0.107338
0.109028
0.110722
0.112417
0.114109
0.115798
0.117483
0.119166
0.120847
0.122528
0.124211
0.125895
0.127577
0.129253
0.130912
0.13255
0.134156
0.135723
0.137259
0.138762
0.140239
0.141687
0.143114
0.14453
0.145941
0.147349
0.148761
0.150175
0.151594
0.153017
0.154443
0.155873
0.157306
0.158741
0.160179
0.161618
0.163059
0.164502
0.165946
0.167392
0.16884
0.170289
0.171741
0.173194
0.17465
0.176107
0.177567
0.179028
0.180491
0.181955
0.183422
0.18489
0.186359
0.18783
0.189303
0.190778
0.192255
0.193735
0.195217
0.196702
0.19819
0.199682
0.201179
0.202682
0.204192
0.205715
0.207262
0.208862
0.210689
0.212833
0.214952
0.216956
0.21887
0.220704
0.222491
0.224236
0.225941
0.227605
0.229238
0.230829
0.232386
0.233909
0.235399
0.236853
0.238276
0.239661
0.241007
0.242321
0.243604
0.244846
0.246043
0.2472
0.248308
0.24936
0.250372
0.251333
0.100909
0.102676
0.104417
0.106141
0.107853
0.109558
0.111257
0.112951
0.114641
0.116327
0.118009
0.119688
0.121362
0.123032
0.124697
0.126355
0.128004
0.12964
0.13126
0.132861
0.134438
0.135989
0.137518
0.139026
0.14052
0.142002
0.14347
0.144926
0.146372
0.147812
0.149247
0.15068
0.152111
0.153546
0.154988
0.156431
0.15787
0.159308
0.160747
0.162186
0.163626
0.165067
0.166508
0.16795
0.169391
0.170831
0.172269
0.173715
0.175185
0.176654
0.178119
0.179582
0.181046
0.182512
0.183978
0.185446
0.186915
0.188385
0.189856
0.191328
0.1928
0.194273
0.195746
0.197218
0.198689
0.200156
0.201616
0.203061
0.204484
0.206079
0.208021
0.210041
0.212028
0.213989
0.215906
0.21778
0.219615
0.221415
0.223179
0.224911
0.226604
0.228263
0.229888
0.231477
0.233037
0.234566
0.236056
0.237517
0.238939
0.240325
0.24167
0.242984
0.24426
0.245492
0.246689
0.247847
0.24896
0.250024
0.251033
0.251994
0.100879
0.102625
0.104355
0.106073
0.107783
0.109486
0.111183
0.112876
0.114566
0.116252
0.117934
0.119613
0.121288
0.122959
0.124625
0.126286
0.127938
0.129578
0.131201
0.132805
0.134384
0.135934
0.137459
0.138963
0.140453
0.141937
0.143404
0.144857
0.1463
0.147738
0.149172
0.150602
0.152028
0.153461
0.154916
0.156365
0.157804
0.159242
0.16068
0.16212
0.16356
0.165001
0.166443
0.167886
0.169329
0.170772
0.172217
0.173667
0.175126
0.176589
0.178052
0.179515
0.180979
0.182444
0.183911
0.185379
0.186848
0.188318
0.18979
0.191262
0.192735
0.194208
0.195682
0.197155
0.198628
0.200099
0.201567
0.203031
0.204497
0.206013
0.207794
0.209853
0.211906
0.213891
0.215819
0.2177
0.219539
0.221342
0.223106
0.22484
0.226531
0.228191
0.229818
0.231406
0.232965
0.234495
0.235985
0.237443
0.238864
0.240252
0.2416
0.242913
0.244185
0.245418
0.246616
0.247774
0.248884
0.249946
0.25096
0.251925
0.100864
0.102588
0.104305
0.106015
0.107719
0.109418
0.111114
0.112806
0.114495
0.116181
0.117863
0.119543
0.121218
0.122891
0.124559
0.126225
0.127885
0.129532
0.131162
0.132776
0.13436
0.135905
0.137421
0.138914
0.140396
0.141894
0.143364
0.144812
0.14625
0.147684
0.149116
0.150547
0.151978
0.153412
0.154854
0.156296
0.157735
0.159173
0.160612
0.162052
0.163492
0.164934
0.166377
0.16782
0.169264
0.17071
0.172158
0.17361
0.175066
0.176526
0.177988
0.179451
0.180915
0.18238
0.183847
0.185315
0.186784
0.188255
0.189726
0.191199
0.192672
0.194147
0.195622
0.197097
0.198573
0.200049
0.201525
0.203006
0.204497
0.206018
0.207623
0.209581
0.211717
0.213773
0.215732
0.217626
0.219468
0.221266
0.223034
0.224767
0.226463
0.228124
0.229747
0.23134
0.232897
0.234423
0.235916
0.237374
0.238794
0.24018
0.241524
0.242837
0.244114
0.245349
0.246545
0.247702
0.248814
0.249874
0.250892
0.25186
0.100853
0.102559
0.104262
0.105962
0.10766
0.109355
0.111048
0.112739
0.114427
0.116112
0.117795
0.119475
0.121152
0.122826
0.124497
0.126169
0.127844
0.129502
0.131141
0.132784
0.134392
0.135924
0.137429
0.138911
0.140383
0.141854
0.143314
0.144759
0.146196
0.147629
0.14906
0.15049
0.151921
0.153354
0.154792
0.15623
0.157668
0.159107
0.160546
0.161986
0.163427
0.164869
0.166312
0.167756
0.169202
0.170649
0.172099
0.173551
0.175007
0.176466
0.177927
0.179389
0.180853
0.182318
0.183785
0.185253
0.186722
0.188193
0.189665
0.191138
0.192612
0.194088
0.195564
0.197042
0.198521
0.200001
0.201484
0.202972
0.20447
0.205983
0.207537
0.209402
0.211556
0.213637
0.215628
0.217532
0.219386
0.221188
0.222956
0.224689
0.226386
0.22805
0.229677
0.231268
0.232825
0.234352
0.235844
0.237302
0.238722
0.240105
0.241451
0.242765
0.244046
0.245283
0.246477
0.247633
0.248739
0.249803
0.250818
0.251785
0.100844
0.102532
0.104222
0.105912
0.107603
0.109294
0.110984
0.112674
0.114361
0.116047
0.11773
0.119411
0.121089
0.122764
0.124434
0.12611
0.127832
0.129534
0.131177
0.132793
0.134378
0.135918
0.137425
0.138907
0.140373
0.141831
0.143278
0.144717
0.146149
0.147579
0.149007
0.150436
0.151865
0.153297
0.154731
0.156167
0.157604
0.159042
0.160481
0.161921
0.163362
0.164804
0.166248
0.167693
0.16914
0.170588
0.172039
0.173492
0.174947
0.176405
0.177866
0.179328
0.180791
0.182256
0.183723
0.185191
0.18666
0.188131
0.189604
0.191077
0.192553
0.194029
0.195507
0.196987
0.198469
0.199953
0.20144
0.202932
0.204431
0.205937
0.207464
0.209264
0.211422
0.213515
0.215509
0.217431
0.21929
0.221107
0.222875
0.22461
0.226311
0.227976
0.229604
0.231193
0.23275
0.234276
0.235766
0.237226
0.238644
0.240028
0.24138
0.242697
0.243975
0.245212
0.246409
0.247562
0.248672
0.249733
0.250742
0.251699
0.100834
0.102504
0.10418
0.105861
0.107546
0.109233
0.110922
0.11261
0.114298
0.115984
0.117668
0.11935
0.121029
0.122707
0.124385
0.126065
0.127751
0.129437
0.131125
0.132783
0.134382
0.135927
0.137435
0.138912
0.140373
0.141818
0.143254
0.144683
0.146109
0.147533
0.148957
0.150383
0.15181
0.15324
0.154672
0.156106
0.157541
0.158978
0.160417
0.161857
0.163298
0.16474
0.166184
0.16763
0.169077
0.170526
0.171977
0.173431
0.174886
0.176344
0.177804
0.179266
0.180729
0.182194
0.183661
0.185129
0.186598
0.188069
0.189542
0.191016
0.192492
0.19397
0.195449
0.196931
0.198415
0.199901
0.201392
0.202886
0.204384
0.205885
0.207393
0.209155
0.211295
0.213388
0.215396
0.217328
0.219197
0.221023
0.222797
0.224535
0.226233
0.227901
0.22953
0.231122
0.232679
0.234203
0.235695
0.237151
0.238571
0.239955
0.241304
0.242621
0.2439
0.245141
0.24634
0.247494
0.248599
0.249658
0.250666
0.251623
0.10082
0.102471
0.104134
0.105807
0.107486
0.109172
0.11086
0.112548
0.114236
0.115923
0.117607
0.11929
0.120971
0.122652
0.124333
0.126017
0.127704
0.129383
0.131044
0.132678
0.134302
0.135898
0.137432
0.138907
0.140366
0.141805
0.143229
0.144649
0.146068
0.147487
0.148907
0.150329
0.151754
0.153181
0.154611
0.156043
0.157478
0.158914
0.160352
0.161792
0.163233
0.164676
0.16612
0.167566
0.169013
0.170463
0.171914
0.173368
0.174824
0.176281
0.177741
0.179202
0.180666
0.182131
0.183597
0.185065
0.186535
0.188006
0.189479
0.190954
0.19243
0.193909
0.195389
0.196872
0.198358
0.199847
0.201339
0.202835
0.204334
0.205835
0.207341
0.209039
0.211158
0.213269
0.215281
0.21723
0.219106
0.220939
0.222718
0.224454
0.226156
0.22782
0.22945
0.231047
0.232606
0.234131
0.235621
0.237076
0.238496
0.23988
0.241227
0.242545
0.243828
0.245068
0.246266
0.247418
0.248524
0.249583
0.250594
0.251555
0.100803
0.102433
0.104085
0.105751
0.107429
0.109114
0.110804
0.112494
0.114183
0.11587
0.117555
0.119238
0.120919
0.122601
0.124284
0.125973
0.12767
0.129363
0.131019
0.13265
0.134255
0.135831
0.137361
0.138853
0.140314
0.141758
0.143184
0.144603
0.14602
0.147436
0.148853
0.150272
0.151694
0.15312
0.154548
0.15598
0.157413
0.158849
0.160287
0.161726
0.163168
0.16461
0.166055
0.167501
0.168949
0.170399
0.17185
0.173304
0.17476
0.176217
0.177677
0.179138
0.180602
0.182066
0.183533
0.185001
0.186471
0.187942
0.189416
0.190891
0.192367
0.193847
0.195328
0.196812
0.198299
0.19979
0.201284
0.202782
0.204283
0.205783
0.207279
0.208964
0.21103
0.213144
0.215168
0.217124
0.21902
0.220854
0.222637
0.224374
0.226079
0.227743
0.229376
0.230969
0.232527
0.234054
0.235542
0.236996
0.238415
0.2398
0.24115
0.24247
0.243752
0.24499
0.246192
0.247343
0.248448
0.249506
0.250518
0.251479
0.100779
0.102388
0.104033
0.105696
0.107374
0.109064
0.110757
0.112451
0.114144
0.115833
0.117518
0.1192
0.120882
0.122564
0.124249
0.125934
0.12762
0.1293
0.130958
0.132593
0.134197
0.135765
0.137296
0.138794
0.140263
0.14171
0.143138
0.144557
0.145971
0.147384
0.148798
0.150215
0.151636
0.15306
0.154487
0.155918
0.157351
0.158786
0.160224
0.161663
0.163104
0.164547
0.165992
0.167438
0.168886
0.170336
0.171788
0.173241
0.174697
0.176155
0.177614
0.179075
0.180539
0.182003
0.18347
0.184938
0.186408
0.187879
0.189353
0.190828
0.192305
0.193785
0.195267
0.196751
0.198239
0.199731
0.201227
0.202728
0.204234
0.205748
0.207271
0.208874
0.210853
0.212994
0.215054
0.217025
0.21893
0.220769
0.222557
0.224297
0.226003
0.22767
0.229302
0.230894
0.232453
0.233976
0.235465
0.23692
0.238339
0.239727
0.241074
0.242393
0.243673
0.244916
0.246116
0.247271
0.248378
0.249433
0.250447
0.251407
0.100775
0.102367
0.103999
0.105659
0.107338
0.109028
0.110722
0.112417
0.114109
0.115798
0.117483
0.119166
0.120847
0.122528
0.124211
0.125895
0.127577
0.129253
0.130912
0.13255
0.134156
0.135723
0.137259
0.138762
0.140239
0.141687
0.143114
0.14453
0.145941
0.147349
0.148761
0.150175
0.151594
0.153017
0.154443
0.155873
0.157306
0.158741
0.160179
0.161618
0.163059
0.164502
0.165946
0.167392
0.16884
0.170289
0.171741
0.173194
0.17465
0.176107
0.177567
0.179028
0.180491
0.181955
0.183422
0.18489
0.186359
0.18783
0.189303
0.190778
0.192255
0.193735
0.195217
0.196702
0.19819
0.199682
0.201179
0.202682
0.204192
0.205715
0.207262
0.208862
0.210689
0.212833
0.214952
0.216956
0.21887
0.220704
0.222491
0.224236
0.225941
0.227605
0.229238
0.230829
0.232386
0.233909
0.235399
0.236853
0.238276
0.239661
0.241007
0.242321
0.243604
0.244846
0.246043
0.2472
0.248308
0.24936
0.250372
0.251333
0.100909
0.102676
0.104417
0.106141
0.107853
0.109558
0.111257
0.112951
0.114641
0.116327
0.118009
0.119688
0.121362
0.123032
0.124697
0.126355
0.128004
0.12964
0.13126
0.132861
0.134438
0.135989
0.137518
0.139026
0.14052
0.142002
0.14347
0.144926
0.146372
0.147812
0.149247
0.15068
0.152111
0.153546
0.154988
0.156431
0.15787
0.159308
0.160747
0.162186
0.163626
0.165067
0.166508
0.16795
0.169391
0.170831
0.172269
0.173715
0.175185
0.176654
0.178119
0.179582
0.181046
0.182512
0.183978
0.185446
0.186915
0.188385
0.189856
0.191328
0.1928
0.194273
0.195746
0.197218
0.198689
0.200156
0.201616
0.203061
0.204484
0.206079
0.208021
0.210041
0.212028
0.213989
0.215906
0.21778
0.219615
0.221415
0.223179
0.224911
0.226604
0.228263
0.229888
0.231477
0.233037
0.234566
0.236056
0.237517
0.238939
0.240325
0.24167
0.242984
0.24426
0.245492
0.246689
0.247847
0.24896
0.250024
0.251033
0.251994
0.100775
0.102367
0.103999
0.105659
0.107338
0.109028
0.110722
0.112417
0.114109
0.115798
0.117483
0.119166
0.120847
0.122528
0.124211
0.125895
0.127577
0.129253
0.130912
0.13255
0.134156
0.135723
0.137259
0.138762
0.140239
0.141687
0.143114
0.14453
0.145941
0.147349
0.148761
0.150175
0.151594
0.153017
0.154443
0.155873
0.157306
0.158741
0.160179
0.161618
0.163059
0.164502
0.165946
0.167392
0.16884
0.170289
0.171741
0.173194
0.17465
0.176107
0.177567
0.179028
0.180491
0.181955
0.183422
0.18489
0.186359
0.18783
0.189303
0.190778
0.192255
0.193735
0.195217
0.196702
0.19819
0.199682
0.201179
0.202682
0.204192
0.205715
0.207262
0.208862
0.210689
0.212833
0.214952
0.216956
0.21887
0.220704
0.222491
0.224236
0.225941
0.227605
0.229238
0.230829
0.232386
0.233909
0.235399
0.236853
0.238276
0.239661
0.241007
0.242321
0.243604
0.244846
0.246043
0.2472
0.248308
0.24936
0.250372
0.251333
)
;
    }
}

