/*--------------------------------*- C++ -*----------------------------------*\
| =========                 |                                                 |
| \\      /  F ield         | foam-extend: Open Source CFD                    |
|  \\    /   O peration     | Version:     5.0                                |
|   \\  /    A nd           | Web:         http://www.foam-extend.org         |
|    \\/     M anipulation  |                                                 |
\*---------------------------------------------------------------------------*/
FoamFile
{
    version     2.0;
    format      ascii;
    class       surfaceScalarField;
    location    "6000";
    object      phi;
}
// * * * * * * * * * * * * * * * * * * * * * * * * * * * * * * * * * * * * * //

dimensions      [0 3 -1 0 0 0 0];

internalField   nonuniform List<scalar> 
1890
(
-8.83794e-06
-2.47202e-07
-8.7028e-06
-1.35144e-07
-8.6194e-06
-8.33967e-08
-8.5636e-06
-5.57979e-08
-8.52389e-06
-3.97107e-08
-8.49392e-06
-2.99691e-08
-8.46984e-06
-2.40833e-08
-8.44916e-06
-2.06783e-08
-8.43022e-06
-1.8938e-08
-8.41184e-06
-1.83827e-08
-8.39306e-06
-1.8773e-08
-8.37299e-06
-2.00755e-08
-8.35049e-06
-2.24993e-08
-8.32383e-06
-2.66537e-08
-8.29001e-06
-3.38229e-08
-8.2441e-06
-4.59038e-08
-8.18106e-06
-6.30428e-08
-8.10031e-06
-8.07518e-08
-8.00196e-06
-9.8349e-08
-7.8851e-06
-1.16857e-07
-7.75905e-06
-1.26056e-07
-7.64178e-06
-1.17262e-07
-7.54323e-06
-9.85559e-08
-7.46787e-06
-7.53568e-08
-7.40833e-06
-5.95402e-08
-7.34151e-06
-6.68223e-08
-7.27968e-06
-6.18301e-08
-7.23174e-06
-4.79362e-08
-7.19903e-06
-3.27091e-08
-7.17629e-06
-2.27424e-08
-7.16136e-06
-1.49292e-08
-7.15539e-06
-5.9689e-09
-7.17479e-06
1.94022e-08
-7.21282e-06
3.80273e-08
-7.21175e-06
-1.06901e-09
-7.19497e-06
-1.67846e-08
-7.18992e-06
-5.04933e-09
-7.18923e-06
-6.91946e-10
-7.19192e-06
2.68983e-09
-7.19536e-06
3.44074e-09
-7.19788e-06
2.52491e-09
-7.1999e-06
2.02186e-09
-7.19975e-06
-1.557e-10
-7.19777e-06
-1.97521e-09
-7.18964e-06
-8.13444e-09
-7.16691e-06
-2.2726e-08
-7.11193e-06
-5.49844e-08
-7.03357e-06
-7.83569e-08
-7.00087e-06
-3.27021e-08
-6.99867e-06
-2.19497e-09
-7.00708e-06
8.40814e-09
-7.01841e-06
1.13232e-08
-7.03079e-06
1.23876e-08
-7.04427e-06
1.3472e-08
-7.05843e-06
1.41602e-08
-7.07307e-06
1.4646e-08
-7.08804e-06
1.49711e-08
-7.10323e-06
1.5188e-08
-7.11881e-06
1.55777e-08
-7.13443e-06
1.56239e-08
-7.14949e-06
1.50534e-08
-7.16328e-06
1.37906e-08
-7.17485e-06
1.15788e-08
-7.1825e-06
7.64532e-09
-7.18234e-06
-1.57607e-10
-7.16534e-06
-1.70032e-08
-7.11154e-06
-5.38022e-08
-6.96241e-06
-1.49126e-07
-6.59093e-06
-3.71478e-07
-6.57272e-06
-1.82158e-08
-7.09661e-06
5.23896e-07
-7.53116e-06
4.3455e-07
-7.74847e-06
2.17311e-07
-7.87011e-06
1.21633e-07
-7.9472e-06
7.70934e-08
-8.00168e-06
5.4479e-08
-8.04272e-06
4.10394e-08
-8.07396e-06
3.12416e-08
-8.10202e-06
2.80609e-08
-8.12845e-06
2.64312e-08
-8.16271e-06
3.42611e-08
-8.19531e-06
3.2593e-08
-8.22172e-06
2.64167e-08
-8.25392e-06
3.21947e-08
-8.29389e-06
3.99723e-08
-8.33496e-06
4.10712e-08
-8.37984e-06
4.48771e-08
-8.44804e-06
6.81966e-08
-8.5284e-06
8.03621e-08
-8.60487e-06
7.64712e-08
-8.66978e-06
6.49163e-08
-8.74636e-06
7.6574e-08
-8.85435e-06
1.07989e-07
-8.97005e-06
1.15698e-07
-9.0871e-06
1.17051e-07
-9.2239e-06
1.36801e-07
-9.39861e-06
1.74708e-07
-9.61332e-06
2.14718e-07
-9.81005e-06
1.96721e-07
1.89954e-07
-8.72589e-06
-3.16063e-07
-8.65105e-06
-2.09979e-07
-8.5918e-06
-1.42644e-07
-8.54752e-06
-1.00084e-07
-8.51415e-06
-7.3075e-08
-8.48804e-06
-5.60816e-08
-8.46643e-06
-4.56851e-08
-8.44742e-06
-3.96911e-08
-8.42966e-06
-3.66903e-08
-8.41223e-06
-3.58194e-08
-8.39436e-06
-3.66333e-08
-8.37541e-06
-3.90295e-08
-8.35464e-06
-4.32677e-08
-8.331e-06
-5.02922e-08
-8.30209e-06
-6.2734e-08
-8.26124e-06
-8.67492e-08
-8.19877e-06
-1.25516e-07
-8.11791e-06
-1.61615e-07
-8.02047e-06
-1.95787e-07
-7.8943e-06
-2.43024e-07
-7.75025e-06
-2.70103e-07
-7.62308e-06
-2.44437e-07
-7.52003e-06
-2.01606e-07
-7.45205e-06
-1.43335e-07
-7.41553e-06
-9.60594e-08
-7.33604e-06
-1.46308e-07
-7.26455e-06
-1.33327e-07
-7.21461e-06
-9.787e-08
-7.18544e-06
-6.18796e-08
-7.1652e-06
-4.29861e-08
-7.14622e-06
-3.39115e-08
-7.11944e-06
-3.27487e-08
-7.04667e-06
-5.33622e-08
-6.94377e-06
-6.48753e-08
-6.93583e-06
-9.00899e-09
-6.98168e-06
2.90648e-08
-7.0208e-06
3.40741e-08
-7.05666e-06
3.51682e-08
-7.08948e-06
3.55055e-08
-7.12242e-06
3.63886e-08
-7.1573e-06
3.7406e-08
-7.19317e-06
3.78849e-08
-7.23092e-06
3.75947e-08
-7.26889e-06
3.59929e-08
-7.30794e-06
3.0916e-08
-7.35195e-06
2.12914e-08
-7.41382e-06
6.88601e-09
-7.4925e-06
3.19748e-10
-7.54158e-06
1.6381e-08
-7.57545e-06
3.1669e-08
-7.60731e-06
4.02735e-08
-7.64066e-06
4.46663e-08
-7.67598e-06
4.77124e-08
-7.71223e-06
4.97169e-08
-7.7496e-06
5.15302e-08
-7.78776e-06
5.2814e-08
-7.82655e-06
5.37525e-08
-7.86583e-06
5.44758e-08
-7.90504e-06
5.47812e-08
-7.94414e-06
5.47282e-08
-7.98247e-06
5.3384e-08
-8.0194e-06
5.07224e-08
-8.05357e-06
4.57508e-08
-8.08288e-06
3.69544e-08
-8.10528e-06
2.22413e-08
-8.11855e-06
-3.73792e-09
-8.12037e-06
-5.19833e-08
-8.13239e-06
-1.37098e-07
-8.22747e-06
-2.76405e-07
-7.93215e-06
-3.13536e-07
-7.8958e-06
4.87552e-07
-8.28181e-06
8.2056e-07
-8.61241e-06
5.47909e-07
-8.7754e-06
2.84626e-07
-8.85156e-06
1.53249e-07
-8.88882e-06
9.17388e-08
-8.92368e-06
7.59035e-08
-8.99083e-06
9.8393e-08
-9.04999e-06
8.72174e-08
-9.11605e-06
9.24909e-08
-9.15617e-06
7.43801e-08
-9.19728e-06
7.37004e-08
-9.2639e-06
9.30417e-08
-9.30653e-06
7.48231e-08
-9.35126e-06
8.47025e-08
-9.42031e-06
1.10124e-07
-9.47868e-06
1.03244e-07
-9.51311e-06
1.02624e-07
-9.54598e-06
1.13234e-07
-9.60405e-06
1.34545e-07
-9.70912e-06
1.69981e-07
-9.81263e-06
1.80089e-07
-9.85974e-06
1.55096e-07
-9.89253e-06
1.48484e-07
-9.94686e-06
1.71388e-07
-1.0004e-05
1.93951e-07
-1.00214e-05
1.92064e-07
-1.0026e-05
2.1933e-07
-1.00201e-05
1.90836e-07
1.69856e-07
-8.6198e-06
-3.38336e-07
-8.58371e-06
-2.46065e-07
-8.54924e-06
-1.77116e-07
-8.52051e-06
-1.28819e-07
-8.49716e-06
-9.64241e-08
-8.47764e-06
-7.55977e-08
-8.46044e-06
-6.28848e-08
-8.44442e-06
-5.57117e-08
-8.42879e-06
-5.23132e-08
-8.41304e-06
-5.15716e-08
-8.39676e-06
-5.29117e-08
-8.37965e-06
-5.61414e-08
-8.36166e-06
-6.125e-08
-8.34344e-06
-6.85133e-08
-8.3261e-06
-8.00718e-08
-8.30001e-06
-1.12843e-07
-8.23487e-06
-1.90656e-07
-8.15207e-06
-2.4441e-07
-8.06738e-06
-2.80476e-07
-7.91087e-06
-3.99537e-07
-7.69531e-06
-4.85663e-07
-7.53369e-06
-4.06058e-07
-7.39801e-06
-3.37286e-07
-7.2654e-06
-2.75948e-07
-7.13647e-06
-2.24987e-07
-7.18193e-06
-1.0085e-07
-7.27363e-06
-4.16191e-08
-7.35107e-06
-2.04352e-08
-7.40082e-06
-1.21268e-08
-7.44428e-06
4.71379e-10
-7.48856e-06
1.03667e-08
-7.5359e-06
1.45918e-08
-7.60397e-06
1.47146e-08
-7.68926e-06
2.04111e-08
-7.74616e-06
4.78956e-08
-7.78641e-06
6.93148e-08
-7.82915e-06
7.68116e-08
-7.87363e-06
7.96453e-08
-7.91924e-06
8.11126e-08
-7.96548e-06
8.26361e-08
-8.01154e-06
8.34585e-08
-8.05714e-06
8.34878e-08
-8.10224e-06
8.26995e-08
-8.1463e-06
8.00542e-08
-8.19028e-06
7.48937e-08
-8.23691e-06
6.79162e-08
-8.28976e-06
5.97361e-08
-8.34612e-06
5.66826e-08
-8.3928e-06
6.30596e-08
-8.43324e-06
7.21149e-08
-8.47176e-06
7.87873e-08
-8.51076e-06
8.367e-08
-8.54967e-06
8.66212e-08
-8.58864e-06
8.86857e-08
-8.62729e-06
9.01834e-08
-8.66575e-06
9.12687e-08
-8.7046e-06
9.26093e-08
-8.74289e-06
9.27663e-08
-8.7805e-06
9.23831e-08
-8.81639e-06
9.06237e-08
-8.85104e-06
8.80316e-08
-8.88381e-06
8.3498e-08
-8.91334e-06
7.52766e-08
-8.93966e-06
6.32717e-08
-8.96236e-06
4.49452e-08
-8.98384e-06
1.77378e-08
-9.01551e-06
-2.03124e-08
-9.08267e-06
-6.99358e-08
-9.25e-06
-1.09077e-07
-9.50737e-06
-5.61655e-08
-9.26379e-06
2.43975e-07
-9.0613e-06
6.18073e-07
-8.98572e-06
4.72328e-07
-9.07136e-06
3.70264e-07
-9.16238e-06
2.44265e-07
-9.27338e-06
2.02745e-07
-9.35197e-06
1.5449e-07
-9.38909e-06
1.35508e-07
-9.44204e-06
1.40177e-07
-9.4939e-06
1.44349e-07
-9.56428e-06
1.44762e-07
-9.61999e-06
1.2941e-07
-9.64311e-06
1.16163e-07
-9.69767e-06
1.2938e-07
-9.74689e-06
1.33922e-07
-9.7684e-06
1.31636e-07
-9.8093e-06
1.44138e-07
-9.85599e-06
1.49311e-07
-9.89988e-06
1.57128e-07
-9.94392e-06
1.78583e-07
-9.94672e-06
1.72778e-07
-9.93741e-06
1.70779e-07
-9.92445e-06
1.42143e-07
-9.91294e-06
1.36967e-07
-9.8912e-06
1.49651e-07
-9.85747e-06
1.60218e-07
-9.87742e-06
2.12016e-07
-9.85915e-06
2.01062e-07
-9.90751e-06
2.39194e-07
2.62346e-07
-8.52753e-06
-3.44752e-07
-8.51477e-06
-2.5883e-07
-8.50094e-06
-1.90937e-07
-8.48811e-06
-1.41652e-07
-8.47633e-06
-1.08205e-07
-8.46493e-06
-8.70004e-08
-8.45327e-06
-7.45449e-08
-8.44102e-06
-6.79578e-08
-8.42805e-06
-6.52794e-08
-8.41438e-06
-6.52424e-08
-8.39999e-06
-6.73005e-08
-8.38476e-06
-7.13745e-08
-8.36893e-06
-7.70775e-08
-8.355e-06
-8.24392e-08
-8.35887e-06
-7.61977e-08
-8.37774e-06
-9.3973e-08
-8.27304e-06
-2.95356e-07
-8.0346e-06
-4.82854e-07
-7.82446e-06
-4.90614e-07
-7.89009e-06
-3.33905e-07
-8.16376e-06
-2.11991e-07
-8.32675e-06
-2.43075e-07
-8.40991e-06
-2.5412e-07
-8.43271e-06
-2.53149e-07
-8.43591e-06
-2.2179e-07
-8.39729e-06
-1.39468e-07
-8.36743e-06
-7.14803e-08
-8.3587e-06
-2.91651e-08
-8.36696e-06
-3.86107e-09
-8.38271e-06
1.62201e-08
-8.40567e-06
3.33251e-08
-8.43577e-06
4.46953e-08
-8.47487e-06
5.38123e-08
-8.52078e-06
6.63218e-08
-8.55745e-06
8.45685e-08
-8.58783e-06
9.96932e-08
-8.61997e-06
1.0895e-07
-8.65461e-06
1.14283e-07
-8.6905e-06
1.17005e-07
-8.72639e-06
1.18527e-07
-8.76201e-06
1.19073e-07
-8.79751e-06
1.18992e-07
-8.83208e-06
1.17265e-07
-8.86617e-06
1.14153e-07
-8.90127e-06
1.09989e-07
-8.9379e-06
1.04541e-07
-8.97807e-06
9.99074e-08
-9.01937e-06
9.79905e-08
-9.05671e-06
1.00392e-07
-9.08961e-06
1.05017e-07
-9.12096e-06
1.10142e-07
-9.15065e-06
1.13355e-07
-9.17985e-06
1.15823e-07
-9.20826e-06
1.17099e-07
-9.23628e-06
1.18199e-07
-9.26418e-06
1.19169e-07
-9.29076e-06
1.19193e-07
-9.31695e-06
1.18955e-07
-9.34209e-06
1.17525e-07
-9.36616e-06
1.14686e-07
-9.38871e-06
1.10581e-07
-9.40927e-06
1.04061e-07
-9.42917e-06
9.51733e-08
-9.44803e-06
8.21323e-08
-9.46726e-06
6.41783e-08
-9.49095e-06
4.14245e-08
-9.52536e-06
1.41017e-08
-9.58479e-06
-1.05026e-08
-9.67683e-06
-1.70408e-08
-9.75607e-06
2.3077e-08
-9.70463e-06
1.92535e-07
-9.57925e-06
4.9269e-07
-9.49393e-06
3.87007e-07
-9.45169e-06
3.28031e-07
-9.52874e-06
3.21312e-07
-9.57836e-06
2.5237e-07
-9.65774e-06
2.33866e-07
-9.68697e-06
1.64736e-07
-9.71177e-06
1.64982e-07
-9.72552e-06
1.58094e-07
-9.71961e-06
1.38855e-07
-9.72482e-06
1.34621e-07
-9.741e-06
1.32345e-07
-9.75959e-06
1.47968e-07
-9.78265e-06
1.56979e-07
-9.8189e-06
1.67891e-07
-9.85287e-06
1.78107e-07
-9.88189e-06
1.78325e-07
-9.91908e-06
1.9432e-07
-9.93613e-06
1.95638e-07
-9.92403e-06
1.60672e-07
-9.89566e-06
1.42411e-07
-9.91631e-06
1.62792e-07
-9.94759e-06
1.68253e-07
-9.95109e-06
1.5315e-07
-9.96997e-06
1.79094e-07
-9.92164e-06
1.63686e-07
-9.90447e-06
1.83892e-07
-9.90901e-06
2.43735e-07
3.53336e-07
-8.44161e-06
-3.41795e-07
-8.44687e-06
-2.53564e-07
-8.45166e-06
-1.86149e-07
-8.45466e-06
-1.38647e-07
-8.45513e-06
-1.07742e-07
-8.45247e-06
-8.96545e-08
-8.44668e-06
-8.03364e-08
-8.43834e-06
-7.62951e-08
-8.42802e-06
-7.56043e-08
-8.41644e-06
-7.6818e-08
-8.40406e-06
-7.96734e-08
-8.39046e-06
-8.49784e-08
-8.37429e-06
-9.32464e-08
-8.34738e-06
-1.0935e-07
-8.27665e-06
-1.46925e-07
-8.20072e-06
-1.69904e-07
-8.4876e-06
-8.47815e-09
-9.06993e-06
9.94804e-08
-9.48133e-06
-7.92126e-08
-9.54197e-06
-2.73268e-07
-9.42592e-06
-3.28037e-07
-9.32375e-06
-3.45248e-07
-9.23354e-06
-3.44334e-07
-9.17619e-06
-3.1049e-07
-9.12766e-06
-2.70324e-07
-9.07269e-06
-1.94439e-07
-9.02246e-06
-1.21712e-07
-8.99252e-06
-5.90981e-08
-8.98126e-06
-1.5125e-08
-8.98296e-06
1.79239e-08
-8.99169e-06
4.20468e-08
-9.0089e-06
6.19144e-08
-9.03258e-06
7.74843e-08
-9.0588e-06
9.25436e-08
-9.08215e-06
1.07921e-07
-9.10441e-06
1.21956e-07
-9.12676e-06
1.31297e-07
-9.14946e-06
1.36988e-07
-9.17286e-06
1.40403e-07
-9.19607e-06
1.41733e-07
-9.21936e-06
1.4236e-07
-9.242e-06
1.41634e-07
-9.26448e-06
1.39744e-07
-9.2878e-06
1.37482e-07
-9.31207e-06
1.34259e-07
-9.33781e-06
1.30276e-07
-9.36517e-06
1.27272e-07
-9.3928e-06
1.25617e-07
-9.41918e-06
1.26773e-07
-9.44348e-06
1.29313e-07
-9.4653e-06
1.31962e-07
-9.48619e-06
1.34248e-07
-9.50603e-06
1.3566e-07
-9.52572e-06
1.36795e-07
-9.54498e-06
1.37461e-07
-9.56345e-06
1.37639e-07
-9.58185e-06
1.37595e-07
-9.59963e-06
1.36729e-07
-9.61684e-06
1.34738e-07
-9.63407e-06
1.31916e-07
-9.65103e-06
1.27544e-07
-9.66836e-06
1.21382e-07
-9.68587e-06
1.12684e-07
-9.70488e-06
1.0115e-07
-9.72716e-06
8.64588e-08
-9.75462e-06
6.88765e-08
-9.79118e-06
5.06642e-08
-9.83925e-06
3.75694e-08
-9.89722e-06
4.09301e-08
-9.95356e-06
7.94142e-08
-9.95653e-06
1.95509e-07
-9.83764e-06
3.73799e-07
-9.82589e-06
3.75259e-07
-9.86557e-06
3.67704e-07
-9.86111e-06
3.1685e-07
-9.88592e-06
2.77186e-07
-9.88395e-06
2.31891e-07
-9.91037e-06
1.9116e-07
-9.91031e-06
1.64919e-07
-9.90254e-06
1.50323e-07
-9.93258e-06
1.68899e-07
-9.95754e-06
1.59578e-07
-9.98074e-06
1.55544e-07
-9.97056e-06
1.37791e-07
-9.95269e-06
1.39104e-07
-9.93743e-06
1.52631e-07
-9.90935e-06
1.50028e-07
-9.89988e-06
1.68857e-07
-9.86603e-06
1.60472e-07
-9.8387e-06
1.68306e-07
-9.86729e-06
1.89263e-07
-9.92139e-06
1.9651e-07
-9.95694e-06
1.98343e-07
-9.96413e-06
1.75437e-07
-9.97565e-06
1.64676e-07
-9.95963e-06
1.63067e-07
-1.00018e-05
2.05839e-07
-1.00511e-05
2.33169e-07
-1.00689e-05
2.61537e-07
2.84476e-07
-8.35338e-06
-3.2586e-07
-8.37946e-06
-2.27483e-07
-8.40416e-06
-1.61448e-07
-8.42376e-06
-1.19044e-07
-8.43704e-06
-9.44641e-08
-8.44315e-06
-8.35399e-08
-8.44264e-06
-8.08522e-08
-8.43765e-06
-8.12824e-08
-8.42923e-06
-8.40253e-08
-8.41929e-06
-8.67523e-08
-8.40936e-06
-8.95996e-08
-8.39873e-06
-9.5617e-08
-8.39039e-06
-1.01581e-07
-8.38636e-06
-1.1338e-07
-8.40201e-06
-1.31273e-07
-8.41977e-06
-1.52142e-07
-8.27364e-06
-1.54615e-07
-8.04726e-06
-1.26892e-07
-8.12568e-06
-7.9409e-10
-8.52522e-06
1.26275e-07
-8.90796e-06
5.47031e-08
-9.0787e-06
-1.74506e-07
-9.12666e-06
-2.96373e-07
-9.17747e-06
-2.59689e-07
-9.20305e-06
-2.44744e-07
-9.20497e-06
-1.92515e-07
-9.21443e-06
-1.12252e-07
-9.22614e-06
-4.73875e-08
-9.2353e-06
-5.9676e-09
-9.24916e-06
3.17851e-08
-9.26636e-06
5.92473e-08
-9.2861e-06
8.16566e-08
-9.30846e-06
9.98422e-08
-9.33088e-06
1.14969e-07
-9.351e-06
1.28042e-07
-9.36835e-06
1.39298e-07
-9.38458e-06
1.47536e-07
-9.40061e-06
1.53012e-07
-9.41634e-06
1.56136e-07
-9.4322e-06
1.57587e-07
-9.44762e-06
1.57783e-07
-9.463e-06
1.57018e-07
-9.47898e-06
1.55724e-07
-9.49514e-06
1.53636e-07
-9.51208e-06
1.51199e-07
-9.53045e-06
1.48644e-07
-9.54967e-06
1.46493e-07
-9.56943e-06
1.45386e-07
-9.58818e-06
1.45521e-07
-9.60524e-06
1.46372e-07
-9.62079e-06
1.47512e-07
-9.63525e-06
1.48708e-07
-9.64946e-06
1.49867e-07
-9.66311e-06
1.50447e-07
-9.67624e-06
1.50593e-07
-9.68935e-06
1.50741e-07
-9.70191e-06
1.50158e-07
-9.71415e-06
1.48968e-07
-9.72663e-06
1.47215e-07
-9.7393e-06
1.44588e-07
-9.75237e-06
1.40617e-07
-9.76588e-06
1.34888e-07
-9.78061e-06
1.2742e-07
-9.79709e-06
1.17632e-07
-9.8166e-06
1.05966e-07
-9.84008e-06
9.23587e-08
-9.86805e-06
7.86338e-08
-9.89771e-06
6.72273e-08
-9.91907e-06
6.22958e-08
-9.90364e-06
6.39807e-08
-9.78644e-06
7.83062e-08
-9.82029e-06
4.07651e-07
-9.86495e-06
4.1992e-07
-9.83565e-06
3.38399e-07
-9.84259e-06
3.23791e-07
-9.81548e-06
2.50077e-07
-9.80235e-06
2.18767e-07
-9.80008e-06
1.8889e-07
-9.79597e-06
1.60808e-07
-9.82151e-06
1.75857e-07
-9.80856e-06
1.55958e-07
-9.83065e-06
1.81669e-07
-9.86028e-06
1.85168e-07
-9.88628e-06
1.6379e-07
-9.89954e-06
1.52372e-07
-9.89343e-06
1.46516e-07
-9.90308e-06
1.59681e-07
-9.91132e-06
1.77091e-07
-9.93299e-06
1.82144e-07
-9.94635e-06
1.81671e-07
-9.95972e-06
2.02634e-07
-9.96278e-06
1.99565e-07
-9.94592e-06
1.81479e-07
-9.96005e-06
1.89574e-07
-9.99579e-06
2.00418e-07
-1.00588e-05
2.26092e-07
-1.00912e-05
2.38223e-07
-1.01113e-05
2.53245e-07
-1.00823e-05
2.32538e-07
2.02195e-07
-8.2537e-06
-2.76077e-07
-8.3104e-06
-1.70777e-07
-8.35849e-06
-1.1336e-07
-8.39457e-06
-8.29552e-08
-8.41766e-06
-7.13807e-08
-8.42934e-06
-7.18596e-08
-8.43246e-06
-7.77292e-08
-8.42736e-06
-8.63796e-08
-8.41752e-06
-9.3862e-08
-8.40493e-06
-9.93421e-08
-8.39268e-06
-1.01855e-07
-8.38723e-06
-1.01066e-07
-8.38368e-06
-1.05127e-07
-8.38716e-06
-1.099e-07
-8.39748e-06
-1.2095e-07
-8.41107e-06
-1.38552e-07
-8.38313e-06
-1.82555e-07
-8.27878e-06
-2.3124e-07
-8.08709e-06
-1.92489e-07
-7.79692e-06
-1.63892e-07
-7.67564e-06
-6.65793e-08
-7.88648e-06
3.63427e-08
-8.26605e-06
8.31898e-08
-8.55234e-06
2.66017e-08
-8.83196e-06
3.48802e-08
-9.04455e-06
2.00757e-08
-9.17467e-06
1.78665e-08
-9.25007e-06
2.80079e-08
-9.30363e-06
4.7601e-08
-9.34034e-06
6.84907e-08
-9.37316e-06
9.207e-08
-9.40415e-06
1.12646e-07
-9.43186e-06
1.27549e-07
-9.45635e-06
1.39463e-07
-9.47761e-06
1.49301e-07
-9.49538e-06
1.57066e-07
-9.5105e-06
1.62656e-07
-9.52376e-06
1.66277e-07
-9.5359e-06
1.68278e-07
-9.54727e-06
1.68955e-07
-9.55837e-06
1.68885e-07
-9.5696e-06
1.68246e-07
-9.58079e-06
1.66912e-07
-9.59242e-06
1.65262e-07
-9.60485e-06
1.63638e-07
-9.61821e-06
1.62001e-07
-9.63221e-06
1.60488e-07
-9.6464e-06
1.59583e-07
-9.66013e-06
1.59249e-07
-9.67302e-06
1.59265e-07
-9.68518e-06
1.59671e-07
-9.69644e-06
1.59966e-07
-9.70679e-06
1.6021e-07
-9.71681e-06
1.6047e-07
-9.72667e-06
1.60459e-07
-9.73605e-06
1.60114e-07
-9.74538e-06
1.59494e-07
-9.75488e-06
1.58464e-07
-9.76444e-06
1.56776e-07
-9.77429e-06
1.54443e-07
-9.7848e-06
1.51128e-07
-9.7964e-06
1.46487e-07
-9.80962e-06
1.40641e-07
-9.82518e-06
1.33187e-07
-9.84299e-06
1.23775e-07
-9.86348e-06
1.12846e-07
-9.88521e-06
1.00372e-07
-9.90445e-06
8.64625e-08
-9.91553e-06
7.33811e-08
-9.92572e-06
7.41662e-08
-9.99169e-06
1.44273e-07
-9.79593e-06
2.11895e-07
-9.7638e-06
3.87789e-07
-9.78655e-06
3.61147e-07
-9.7765e-06
3.1374e-07
-9.81054e-06
2.84122e-07
-9.79052e-06
1.98745e-07
-9.79095e-06
1.89319e-07
-9.80346e-06
1.73321e-07
-9.80014e-06
1.72538e-07
-9.80031e-06
1.56123e-07
-9.77674e-06
1.58099e-07
-9.73254e-06
1.40964e-07
-9.73502e-06
1.66278e-07
-9.7599e-06
1.77247e-07
-9.78736e-06
1.7398e-07
-9.81868e-06
1.91001e-07
-9.84041e-06
1.98816e-07
-9.86896e-06
2.10697e-07
-9.89929e-06
2.11997e-07
-9.90019e-06
2.03541e-07
-9.88867e-06
1.88042e-07
-9.90528e-06
1.98087e-07
-9.93269e-06
2.16984e-07
-9.93714e-06
2.04868e-07
-9.92423e-06
2.13186e-07
-9.91045e-06
2.24436e-07
-9.90907e-06
2.5187e-07
-9.93371e-06
2.57174e-07
2.68487e-07
-7.7718e-06
-1.67298e-07
-7.8693e-06
-7.3276e-08
-7.93869e-06
-4.39721e-08
-7.99074e-06
-3.09048e-08
-8.02705e-06
-3.50679e-08
-8.0456e-06
-5.33169e-08
-8.05112e-06
-7.2206e-08
-8.04872e-06
-8.87793e-08
-8.04199e-06
-1.00588e-07
-8.03448e-06
-1.06852e-07
-8.03103e-06
-1.05308e-07
-8.03139e-06
-1.00701e-07
-8.03429e-06
-1.02227e-07
-8.04156e-06
-1.02625e-07
-8.05034e-06
-1.12172e-07
-8.09768e-06
-9.12134e-08
-8.24615e-06
-3.40852e-08
-8.51523e-06
3.78418e-08
-8.75734e-06
4.9623e-08
-8.96346e-06
4.22325e-08
-9.09355e-06
6.35048e-08
-9.17985e-06
1.22648e-07
-9.23548e-06
1.38822e-07
-9.32129e-06
1.12405e-07
-9.36327e-06
7.68611e-08
-9.40309e-06
5.99024e-08
-9.44183e-06
5.65987e-08
-9.47755e-06
6.37321e-08
-9.51383e-06
8.38825e-08
-9.55188e-06
1.06539e-07
-9.58324e-06
1.23436e-07
-9.60841e-06
1.37809e-07
-9.63044e-06
1.49582e-07
-9.64996e-06
1.58982e-07
-9.66654e-06
1.65886e-07
-9.68022e-06
1.70739e-07
-9.69142e-06
1.73862e-07
-9.70064e-06
1.75492e-07
-9.70848e-06
1.76121e-07
-9.7155e-06
1.75975e-07
-9.72211e-06
1.75496e-07
-9.72854e-06
1.74676e-07
-9.73544e-06
1.73807e-07
-9.74294e-06
1.72768e-07
-9.75082e-06
1.71514e-07
-9.75941e-06
1.7059e-07
-9.76843e-06
1.69511e-07
-9.77782e-06
1.68975e-07
-9.78713e-06
1.68555e-07
-9.79616e-06
1.68298e-07
-9.80471e-06
1.68219e-07
-9.81291e-06
1.68171e-07
-9.82081e-06
1.6811e-07
-9.82838e-06
1.68034e-07
-9.83571e-06
1.6779e-07
-9.84304e-06
1.67441e-07
-9.85059e-06
1.67049e-07
-9.85847e-06
1.66341e-07
-9.86694e-06
1.65244e-07
-9.87603e-06
1.63532e-07
-9.88588e-06
1.60986e-07
-9.89739e-06
1.57991e-07
-9.91062e-06
1.53876e-07
-9.92615e-06
1.48711e-07
-9.94432e-06
1.41945e-07
-9.96443e-06
1.32965e-07
-9.98452e-06
1.20455e-07
-9.99892e-06
1.00865e-07
-9.98915e-06
6.36148e-08
-9.89328e-06
-2.17044e-08
-9.5426e-06
-2.06406e-07
-9.59359e-06
2.62888e-07
-9.82456e-06
6.18754e-07
-9.94897e-06
4.85553e-07
-9.9683e-06
3.33073e-07
-9.94915e-06
2.6497e-07
-9.97125e-06
2.20851e-07
-9.9851e-06
2.03169e-07
-9.99925e-06
1.87468e-07
-9.99699e-06
1.70277e-07
-1.001e-05
1.69103e-07
-1.00068e-05
1.54951e-07
-1.00286e-05
1.62749e-07
-1.00366e-05
1.74314e-07
-1.00312e-05
1.71848e-07
-1.00531e-05
1.9579e-07
-1.00563e-05
1.94232e-07
-1.00523e-05
1.94804e-07
-1.00431e-05
2.01534e-07
-1.00133e-05
1.82202e-07
-1.0014e-05
2.04259e-07
-1.00493e-05
2.23266e-07
-1.00907e-05
2.39526e-07
-1.0085e-05
2.11337e-07
-1.01094e-05
2.2922e-07
-1.01134e-05
2.17205e-07
-1.00932e-05
2.04219e-07
-1.00733e-05
2.31973e-07
-1.00351e-05
2.18925e-07
2.33428e-07
-9.25299e-06
-1.51498e-07
-9.27005e-06
-5.62199e-08
-9.32702e-06
1.30034e-08
-9.38712e-06
2.9195e-08
-9.44719e-06
2.49971e-08
-9.51894e-06
1.84388e-08
-9.60381e-06
1.26595e-08
-9.70547e-06
1.28808e-08
-9.81867e-06
1.26171e-08
-9.94535e-06
1.9828e-08
-1.00707e-05
2.00814e-08
-1.01933e-05
2.19053e-08
-1.0327e-05
3.14074e-08
-1.04644e-05
3.47713e-08
-1.06307e-05
5.41643e-08
-1.07887e-05
6.6748e-08
-1.09171e-05
9.43957e-08
-1.10032e-05
1.23909e-07
-1.10751e-05
1.21527e-07
-1.11406e-05
1.07757e-07
-1.11806e-05
1.03441e-07
-1.11832e-05
1.2528e-07
-1.11395e-05
9.50698e-08
-1.10903e-05
6.32808e-08
-1.10194e-05
5.93451e-09
-1.0963e-05
3.54301e-09
-1.09217e-05
1.52873e-08
-1.08893e-05
3.12879e-08
-1.08669e-05
6.14712e-08
-1.08572e-05
9.68239e-08
-1.08502e-05
1.16469e-07
-1.08461e-05
1.33688e-07
-1.08418e-05
1.45307e-07
-1.08362e-05
1.53394e-07
-1.08286e-05
1.58299e-07
-1.08192e-05
1.61281e-07
-1.08075e-05
1.62178e-07
-1.07942e-05
1.62213e-07
-1.07799e-05
1.61843e-07
-1.07651e-05
1.61197e-07
-1.075e-05
1.60397e-07
-1.07353e-05
1.59902e-07
-1.07206e-05
1.59132e-07
-1.07066e-05
1.58734e-07
-1.0693e-05
1.57947e-07
-1.06803e-05
1.57902e-07
-1.0668e-05
1.57205e-07
-1.06562e-05
1.57206e-07
-1.06447e-05
1.57025e-07
-1.06328e-05
1.5642e-07
-1.0621e-05
1.56381e-07
-1.06087e-05
1.559e-07
-1.05966e-05
1.55988e-07
-1.05845e-05
1.559e-07
-1.05722e-05
1.55499e-07
-1.05603e-05
1.55534e-07
-1.05494e-05
1.56206e-07
-1.05391e-05
1.55996e-07
-1.05298e-05
1.55951e-07
-1.0522e-05
1.55702e-07
-1.05159e-05
1.54963e-07
-1.05121e-05
1.54127e-07
-1.05107e-05
1.52469e-07
-1.05119e-05
1.49907e-07
-1.05162e-05
1.46317e-07
-1.05244e-05
1.41127e-07
-1.05367e-05
1.32802e-07
-1.05541e-05
1.1822e-07
-1.05776e-05
8.71738e-08
-1.06148e-05
1.54596e-08
-1.06716e-05
-1.49622e-07
-1.02709e-05
-1.37781e-07
-1.0305e-05
6.52814e-07
-1.04193e-05
5.99879e-07
-1.04219e-05
3.35683e-07
-1.03324e-05
1.75439e-07
-1.02392e-05
1.27689e-07
-1.01891e-05
1.53012e-07
-1.01602e-05
1.58584e-07
-1.01272e-05
1.37313e-07
-1.0098e-05
1.39862e-07
-1.01031e-05
1.60103e-07
-1.00958e-05
1.55372e-07
-1.00791e-05
1.57691e-07
-1.00824e-05
1.75127e-07
-1.00661e-05
1.79427e-07
-1.00476e-05
1.75778e-07
-1.00344e-05
1.81649e-07
-9.98936e-06
1.56454e-07
-9.97902e-06
1.71863e-07
-9.95505e-06
1.80281e-07
-9.94594e-06
2.1416e-07
-9.90843e-06
2.02019e-07
-9.90333e-06
2.06237e-07
-9.90674e-06
2.32621e-07
-9.90215e-06
2.12617e-07
-9.90759e-06
2.09658e-07
-9.91439e-06
2.38776e-07
-9.9646e-06
2.69136e-07
2.68827e-07
-2.32155e-05
-2.32717e-05
-2.32587e-05
-2.32295e-05
-2.32045e-05
-2.31861e-05
-2.31734e-05
-2.31606e-05
-2.31479e-05
-2.31281e-05
-2.3108e-05
-2.30861e-05
-2.30547e-05
-2.302e-05
-2.29658e-05
-2.2899e-05
-2.28046e-05
-2.26807e-05
-2.25592e-05
-2.24515e-05
-2.2348e-05
-2.22227e-05
-2.21277e-05
-2.20644e-05
-2.20584e-05
-2.20549e-05
-2.20396e-05
-2.20083e-05
-2.19469e-05
-2.185e-05
-2.17336e-05
-2.15999e-05
-2.14546e-05
-2.13012e-05
-2.11429e-05
-2.09816e-05
-2.08194e-05
-2.06572e-05
-2.04954e-05
-2.03342e-05
-2.01738e-05
-2.00139e-05
-1.98547e-05
-1.9696e-05
-1.9538e-05
-1.93801e-05
-1.92229e-05
-1.90657e-05
-1.89087e-05
-1.87523e-05
-1.85959e-05
-1.844e-05
-1.8284e-05
-1.81281e-05
-1.79726e-05
-1.78171e-05
-1.76609e-05
-1.75049e-05
-1.73489e-05
-1.71932e-05
-1.70383e-05
-1.68841e-05
-1.67317e-05
-1.65818e-05
-1.64355e-05
-1.62943e-05
-1.61615e-05
-1.60433e-05
-1.59561e-05
-1.59407e-05
-1.60903e-05
-1.62281e-05
-1.55753e-05
-1.49754e-05
-1.46397e-05
-1.44643e-05
-1.43366e-05
-1.41836e-05
-1.4025e-05
-1.38877e-05
-1.37478e-05
-1.35877e-05
-1.34323e-05
-1.32746e-05
-1.30995e-05
-1.29201e-05
-1.27443e-05
-1.25626e-05
-1.24062e-05
-1.22343e-05
-1.20541e-05
-1.18399e-05
-1.16379e-05
-1.14316e-05
-1.1199e-05
-1.09864e-05
-1.07767e-05
-1.0538e-05
-1.02688e-05
)
;

boundaryField
{
    inlet
    {
        type            calculated;
        value           nonuniform List<scalar> 10(-1e-05 -1e-05 -1e-05 -1e-05 -1e-05 -1e-05 -1e-05 -1e-05 -1e-05 -1e-05);
    }
    outlet
    {
        type            calculated;
        value           nonuniform List<scalar> 10(9.08514e-06 8.79475e-06 8.64207e-06 8.53395e-06 8.43865e-06 8.33744e-06 8.20391e-06 7.66302e-06 9.23719e-06 2.3064e-05);
    }
    walls
    {
        type            calculated;
        value           uniform 0;
    }
}


// ************************************************************************* //
