/*--------------------------------*- C++ -*----------------------------------*\
| =========                 |                                                 |
| \\      /  F ield         | foam-extend: Open Source CFD                    |
|  \\    /   O peration     | Version:     5.0                                |
|   \\  /    A nd           | Web:         http://www.foam-extend.org         |
|    \\/     M anipulation  |                                                 |
\*---------------------------------------------------------------------------*/
FoamFile
{
    version     2.0;
    format      ascii;
    class       surfaceScalarField;
    location    "6000";
    object      phi.oil;
}
// * * * * * * * * * * * * * * * * * * * * * * * * * * * * * * * * * * * * * //

dimensions      [0 3 -1 0 0 0 0];

internalField   nonuniform List<scalar> 
1890
(
-4.01725e-05
-1.30106e-06
-4.46297e-05
-6.14293e-07
-4.78856e-05
-4.76553e-07
-4.75756e-05
-2.93673e-07
-5.166e-05
-1.93711e-07
-5.47995e-05
-1.49846e-07
-4.83991e-05
-1.55376e-07
-4.82809e-05
-9.39923e-08
-5.43885e-05
-1.08217e-07
-4.20592e-05
-1.05044e-07
-3.64916e-05
-9.15756e-08
-3.64043e-05
-9.79294e-08
-3.47937e-05
-9.99969e-08
-3.54206e-05
-1.30018e-07
-4.36316e-05
-1.69115e-07
-5.15256e-05
-2.41599e-07
-3.99076e-05
-3.94018e-07
-3.68196e-05
-3.67054e-07
-3.72184e-05
-5.04354e-07
-3.35536e-05
-5.19365e-07
-3.60886e-05
-6.00264e-07
-4.13069e-05
-5.8631e-07
-3.86832e-05
-5.63176e-07
-3.82968e-05
-3.76784e-07
-4.23333e-05
-3.21839e-07
-4.07862e-05
-3.61203e-07
-3.55106e-05
-3.09156e-07
-3.28716e-05
-2.3969e-07
-3.89137e-05
-1.52145e-07
-4.78419e-05
-1.51636e-07
-3.87101e-05
-7.85856e-08
-3.49044e-05
-3.14211e-08
-3.77621e-05
1.04916e-07
-4.00714e-05
2.06492e-07
-3.6984e-05
-5.28848e-09
-3.1284e-05
-7.3713e-08
-3.05982e-05
-2.15169e-08
-3.68742e-05
-1.83207e-10
-3.99658e-05
1.87795e-08
-3.27154e-05
2.24112e-08
-3.27291e-05
1.4428e-08
-3.27409e-05
1.4917e-08
-3.51395e-05
3.23781e-09
-3.60119e-05
-5.781e-09
-3.19751e-05
-3.74763e-08
-3.87799e-05
-1.08732e-07
-4.0809e-05
-3.67977e-07
-3.3446e-05
-4.67178e-07
-3.5209e-05
-2.19477e-07
-3.61276e-05
-1.20283e-07
-3.33775e-05
-7.72275e-08
-3.25681e-05
-7.51026e-08
-3.25483e-05
-8.6803e-08
-3.69292e-05
-7.38385e-08
-3.59417e-05
-8.55136e-08
-3.7911e-05
-7.86537e-08
-3.89723e-05
-1.03927e-07
-3.68314e-05
-1.00649e-07
-4.1258e-05
-9.81164e-08
-4.25009e-05
-1.07104e-07
-3.99486e-05
-1.29547e-07
-3.22881e-05
-1.52173e-07
-3.14671e-05
-1.43344e-07
-3.64675e-05
-1.83141e-07
-3.27769e-05
-2.2548e-07
-3.25528e-05
-3.22712e-07
-3.3812e-05
-4.81898e-07
-3.29933e-05
-1.02772e-06
-3.45461e-05
-2.22323e-06
-3.05527e-05
-4.55193e-07
-2.5677e-05
1.75048e-06
-2.28255e-05
1.02425e-06
-2.34923e-05
3.18928e-07
-2.00134e-05
1.7057e-07
-1.88347e-05
7.02537e-08
-1.82627e-05
1.95722e-09
-1.78404e-05
-5.03745e-08
-1.79103e-05
-7.43823e-08
-1.57949e-05
-8.40267e-08
-1.36563e-05
-6.11258e-08
-1.36615e-05
-5.19949e-08
-1.29177e-05
-6.14547e-08
-1.32014e-05
-6.57487e-08
-1.33761e-05
-6.39432e-08
-1.09958e-05
-5.08868e-08
-1.04111e-05
-4.09479e-08
-9.43241e-06
-4.1842e-08
-7.57783e-06
-4.0719e-09
-7.15092e-06
-9.5643e-09
-7.44646e-06
-2.96086e-08
-7.64974e-06
-5.18517e-08
-5.67449e-06
-2.04717e-08
-5.02181e-06
1.4565e-08
-5.11395e-06
1.89687e-09
-4.23354e-06
-1.09799e-08
-3.08736e-06
2.5295e-09
-2.22516e-06
1.9814e-08
-1.58929e-06
1.63201e-08
-1.21357e-06
-2.80014e-08
-2.39768e-08
-4.59257e-05
-1.70845e-06
-4.32553e-05
-9.76648e-07
-4.64422e-05
-8.6451e-07
-3.97559e-05
-5.56022e-07
-3.54756e-05
-3.04479e-07
-4.24402e-05
-2.49252e-07
-4.23322e-05
-2.46946e-07
-3.83974e-05
-1.80414e-07
-4.3229e-05
-1.83451e-07
-4.67346e-05
-1.98997e-07
-4.66354e-05
-1.87863e-07
-4.1877e-05
-1.81533e-07
-4.39718e-05
-2.27725e-07
-4.90059e-05
-2.79401e-07
-4.15104e-05
-3.80206e-07
-4.34802e-05
-4.23167e-07
-4.68501e-05
-7.38328e-07
-4.16303e-05
-8.50607e-07
-3.91242e-05
-1.03046e-06
-3.94715e-05
-1.13036e-06
-3.97449e-05
-1.5011e-06
-4.01215e-05
-1.19354e-06
-4.17779e-05
-1.06299e-06
-3.92213e-05
-7.18384e-07
-3.80285e-05
-4.49497e-07
-3.57863e-05
-6.95829e-07
-3.72563e-05
-7.24814e-07
-3.70022e-05
-5.51615e-07
-3.99265e-05
-3.5327e-07
-3.77206e-05
-2.77485e-07
-3.66587e-05
-1.47522e-07
-4.19043e-05
-1.81928e-07
-3.92751e-05
-2.84828e-07
-3.73206e-05
-3.51565e-07
-3.12192e-05
-8.37793e-08
-3.06232e-05
1.84285e-08
-3.06532e-05
-3.16155e-08
-2.8568e-05
-4.3369e-08
-3.2004e-05
-5.70068e-08
-3.04712e-05
-8.09552e-08
-2.97085e-05
-8.48408e-08
-3.10654e-05
-9.04863e-08
-2.9585e-05
-1.18641e-07
-3.32884e-05
-1.1505e-07
-3.50177e-05
-1.75124e-07
-3.59221e-05
-2.46289e-07
-4.17957e-05
-3.61454e-07
-4.34027e-05
-3.87626e-07
-3.82984e-05
-3.1873e-07
-3.33333e-05
-2.48004e-07
-3.09091e-05
-2.18466e-07
-3.50463e-05
-2.02663e-07
-3.32284e-05
-2.23069e-07
-2.81475e-05
-1.68772e-07
-2.87528e-05
-1.70357e-07
-3.00649e-05
-1.73822e-07
-3.39894e-05
-2.2321e-07
-3.07254e-05
-2.51907e-07
-2.68546e-05
-2.21631e-07
-2.92615e-05
-2.0616e-07
-3.57165e-05
-2.69101e-07
-3.89069e-05
-3.39875e-07
-3.56019e-05
-3.35856e-07
-3.19737e-05
-3.76191e-07
-3.5432e-05
-3.78668e-07
-3.34615e-05
-5.47793e-07
-3.25067e-05
-6.98704e-07
-3.84636e-05
-1.21152e-06
-3.81383e-05
-1.84219e-06
-3.46613e-05
-1.79395e-06
-2.64386e-05
1.2799e-06
-2.09569e-05
2.17794e-06
-1.8631e-05
1.03005e-06
-2.06997e-05
1.28298e-07
-2.26285e-05
-7.88228e-08
-2.29597e-05
-1.67491e-07
-1.87723e-05
-1.55167e-07
-1.66063e-05
-8.39502e-08
-1.43634e-05
-1.23664e-07
-1.35577e-05
-8.77461e-08
-1.53811e-05
-1.3798e-07
-1.17944e-05
-1.16133e-07
-1.14034e-05
-7.93138e-08
-1.36869e-05
-1.25125e-07
-1.04207e-05
-1.05656e-07
-8.82131e-06
-5.60728e-08
-9.63218e-06
-8.2554e-08
-9.73617e-06
-7.85553e-08
-8.19444e-06
-6.67598e-08
-6.21494e-06
-2.89648e-08
-5.34075e-06
-2.47181e-09
-5.29399e-06
-2.18581e-08
-6.13608e-06
-7.26406e-08
-5.34979e-06
-8.29997e-08
-3.92949e-06
-6.03468e-08
-3.16812e-06
-5.6226e-08
-2.77393e-06
-7.06137e-08
-2.12405e-06
-6.20092e-08
-1.25745e-06
-7.2762e-08
-4.47582e-08
-4.10467e-05
-1.73506e-06
-4.76873e-05
-1.26187e-06
-5.34328e-05
-9.08289e-07
-4.15634e-05
-6.6061e-07
-3.77651e-05
-4.59162e-07
-4.03697e-05
-3.87681e-07
-4.12704e-05
-3.14424e-07
-4.22221e-05
-2.65294e-07
-4.5561e-05
-2.4911e-07
-4.31438e-05
-2.86509e-07
-3.65077e-05
-2.78483e-07
-4.08763e-05
-2.6734e-07
-4.64537e-05
-3.22368e-07
-4.76768e-05
-3.42567e-07
-4.89771e-05
-4.57553e-07
-4.48649e-05
-6.63783e-07
-4.45128e-05
-9.77724e-07
-4.40653e-05
-1.3973e-06
-4.03374e-05
-1.56639e-06
-4.05818e-05
-2.19184e-06
-4.05546e-05
-2.36697e-06
-3.68391e-05
-2.15874e-06
-3.53518e-05
-1.64787e-06
-3.24706e-05
-1.31977e-06
-2.99684e-05
-1.13983e-06
-3.29573e-05
-5.31873e-07
-3.60157e-05
-4.87463e-07
-3.76161e-05
-4.60019e-07
-3.98628e-05
-4.34733e-07
-3.09778e-05
-3.75351e-07
-2.80995e-05
-3.29702e-07
-3.0032e-05
-3.73828e-07
-3.00404e-05
-3.27456e-07
-2.87584e-05
-3.78716e-07
-3.23371e-05
-2.39398e-07
-3.6938e-05
-1.98557e-07
-3.21271e-05
-1.63374e-07
-2.7796e-05
-1.7006e-07
-2.97382e-05
-1.68187e-07
-3.78085e-05
-1.66701e-07
-3.36917e-05
-1.99503e-07
-3.36431e-05
-2.00188e-07
-3.18956e-05
-2.22238e-07
-2.70103e-05
-1.92559e-07
-3.18372e-05
-2.69614e-07
-3.54842e-05
-2.93608e-07
-3.18945e-05
-3.80393e-07
-2.96891e-05
-3.43237e-07
-3.20058e-05
-3.25888e-07
-3.56609e-05
-2.92571e-07
-3.78047e-05
-3.61057e-07
-3.56307e-05
-2.93657e-07
-3.11655e-05
-2.82449e-07
-2.83257e-05
-2.50359e-07
-2.76907e-05
-2.40993e-07
-3.27824e-05
-2.87153e-07
-4.01718e-05
-2.97919e-07
-4.1494e-05
-3.85932e-07
-3.5554e-05
-3.6171e-07
-3.45515e-05
-3.36635e-07
-4.01046e-05
-3.97032e-07
-3.7653e-05
-3.89638e-07
-3.54773e-05
-4.67011e-07
-3.18167e-05
-5.25254e-07
-2.75607e-05
-4.90208e-07
-3.02516e-05
-6.16282e-07
-3.35895e-05
-7.19641e-07
-3.38495e-05
-9.84813e-07
-3.19766e-05
-1.04777e-06
-2.88515e-05
-8.00624e-07
-2.98749e-05
2.11149e-07
-3.07404e-05
1.94933e-06
-2.50148e-05
1.30214e-06
-1.85538e-05
8.24499e-07
-1.76562e-05
2.50542e-07
-1.58522e-05
1.8178e-07
-1.79685e-05
3.71601e-08
-1.84641e-05
1.24581e-08
-1.44626e-05
2.26509e-08
-1.24078e-05
1.5325e-08
-1.11385e-05
1.06059e-09
-1.18806e-05
-4.33528e-08
-1.1395e-05
-7.90154e-08
-9.84262e-06
-4.96122e-08
-1.04276e-05
-6.1203e-08
-9.59028e-06
-6.7767e-08
-7.91212e-06
-4.7298e-08
-7.37012e-06
-4.23957e-08
-6.82804e-06
-4.3068e-08
-6.97265e-06
-2.5155e-08
-8.04484e-06
-5.88202e-08
-6.48341e-06
-5.86117e-08
-5.5675e-06
-6.72596e-08
-5.19987e-06
-5.97167e-08
-4.55895e-06
-4.31897e-08
-3.28921e-06
-2.56388e-08
-2.51049e-06
1.69665e-08
-2.22602e-06
-1.8028e-08
-1.11617e-06
8.51766e-09
-2.29248e-09
-4.73752e-05
-1.81449e-06
-4.05465e-05
-1.36226e-06
-3.69606e-05
-8.12498e-07
-4.24406e-05
-6.58846e-07
-4.70907e-05
-5.54895e-07
-4.57564e-05
-4.57897e-07
-4.12354e-05
-4.02945e-07
-3.83683e-05
-3.23608e-07
-4.11125e-05
-2.90131e-07
-4.80822e-05
-3.52661e-07
-4.94117e-05
-3.54213e-07
-4.29987e-05
-4.07854e-07
-3.9852e-05
-4.28208e-07
-4.1775e-05
-4.45617e-07
-4.7765e-05
-4.01058e-07
-4.65431e-05
-5.89294e-07
-4.47389e-05
-1.54616e-06
-4.74306e-05
-2.34355e-06
-4.66663e-05
-2.37986e-06
-3.70576e-05
-2.04846e-06
-3.2895e-05
-1.24241e-06
-3.40955e-05
-1.76489e-06
-2.81807e-05
-1.59694e-06
-2.99578e-05
-1.35484e-06
-3.23082e-05
-1.65757e-06
-3.28159e-05
-1.09775e-06
-3.85192e-05
-8.92222e-07
-3.30654e-05
-7.9739e-07
-2.76935e-05
-6.25519e-07
-3.11752e-05
-5.70772e-07
-3.7943e-05
-4.86686e-07
-3.28001e-05
-5.8107e-07
-3.28349e-05
-4.02539e-07
-3.80181e-05
-4.37785e-07
-3.4753e-05
-3.15319e-07
-3.19694e-05
-3.33267e-07
-3.37094e-05
-2.76946e-07
-3.9118e-05
-2.80078e-07
-3.18989e-05
-3.14502e-07
-2.7539e-05
-2.11445e-07
-3.27392e-05
-2.48994e-07
-3.18734e-05
-2.56739e-07
-2.69118e-05
-2.28559e-07
-3.10521e-05
-2.66244e-07
-3.10636e-05
-3.52891e-07
-3.03098e-05
-3.08506e-07
-3.28129e-05
-3.83217e-07
-3.0403e-05
-3.3908e-07
-2.76736e-05
-3.8033e-07
-3.12432e-05
-3.48769e-07
-3.29449e-05
-3.64016e-07
-2.90312e-05
-3.2918e-07
-2.8365e-05
-3.02147e-07
-2.65244e-05
-3.25064e-07
-3.05137e-05
-3.09648e-07
-3.13065e-05
-3.35178e-07
-3.30084e-05
-3.38981e-07
-3.70188e-05
-4.21628e-07
-3.49134e-05
-3.35421e-07
-3.59509e-05
-4.35031e-07
-3.21762e-05
-4.05491e-07
-3.39759e-05
-4.20568e-07
-3.94679e-05
-4.81076e-07
-3.49734e-05
-5.47983e-07
-3.5005e-05
-6.01052e-07
-3.14646e-05
-6.68399e-07
-3.00356e-05
-6.14168e-07
-3.09811e-05
-7.34473e-07
-2.91206e-05
-8.5535e-07
-3.52078e-05
-6.60353e-07
-4.15005e-05
-1.09704e-07
-3.32887e-05
1.12112e-06
-2.84752e-05
8.14319e-07
-2.32351e-05
6.86435e-07
-1.84999e-05
5.58621e-07
-1.72303e-05
2.78478e-07
-1.60382e-05
2.26799e-07
-1.81074e-05
3.34637e-08
-1.62369e-05
6.11758e-08
-1.61936e-05
2.84006e-08
-1.47006e-05
-1.80714e-08
-1.18475e-05
-9.7087e-09
-1.11226e-05
-8.89354e-09
-1.10001e-05
1.61009e-08
-9.7057e-06
1.72932e-08
-8.57226e-06
1.56164e-08
-8.01099e-06
1.23283e-08
-7.16248e-06
-6.88684e-09
-7.00246e-06
-1.92616e-09
-7.58576e-06
-2.60009e-08
-8.44886e-06
-7.34061e-08
-6.24536e-06
-7.08715e-08
-4.49679e-06
-2.55284e-08
-4.45077e-06
-2.78131e-08
-3.91059e-06
-4.53174e-08
-3.25911e-06
-2.0126e-08
-3.11222e-06
-4.37295e-08
-2.09528e-06
-5.44138e-09
-1.23301e-06
3.63936e-08
6.38712e-08
-4.2208e-05
-1.89886e-06
-3.92878e-05
-1.33455e-06
-3.84166e-05
-8.27331e-07
-4.02603e-05
-6.4487e-07
-4.12445e-05
-5.52525e-07
-4.44867e-05
-4.59766e-07
-4.44562e-05
-3.91885e-07
-3.92481e-05
-4.12406e-07
-4.11123e-05
-3.36019e-07
-4.20822e-05
-3.74722e-07
-4.30978e-05
-3.62152e-07
-5.24404e-05
-5.15021e-07
-5.40277e-05
-5.18036e-07
-4.77015e-05
-6.62725e-07
-4.74e-05
-7.16737e-07
-4.62614e-05
-8.97871e-07
-3.50249e-05
-1.36984e-07
-3.0251e-05
7.83363e-08
-3.39508e-05
-9.06075e-07
-3.80171e-05
-1.66071e-06
-3.90233e-05
-1.80742e-06
-3.81169e-05
-2.05609e-06
-3.2504e-05
-2.09113e-06
-3.29957e-05
-1.80127e-06
-3.46719e-05
-1.79765e-06
-3.0129e-05
-1.55659e-06
-2.92046e-05
-1.04071e-06
-3.22208e-05
-9.08938e-07
-3.60344e-05
-8.7148e-07
-3.04538e-05
-7.91963e-07
-3.04569e-05
-5.74022e-07
-3.30049e-05
-5.82256e-07
-2.97419e-05
-4.71273e-07
-2.70735e-05
-4.32968e-07
-3.05717e-05
-3.15356e-07
-3.84635e-05
-3.3582e-07
-3.50717e-05
-3.15361e-07
-3.61383e-05
-3.07241e-07
-3.22382e-05
-3.16527e-07
-2.98304e-05
-2.68198e-07
-2.91138e-05
-2.69634e-07
-2.54088e-05
-2.34313e-07
-2.77876e-05
-2.77388e-07
-3.23146e-05
-2.80676e-07
-3.23414e-05
-2.93363e-07
-3.15254e-05
-3.69572e-07
-2.92595e-05
-3.2744e-07
-3.08071e-05
-3.70793e-07
-3.75954e-05
-3.90284e-07
-3.34543e-05
-3.72966e-07
-3.17218e-05
-2.99424e-07
-3.0933e-05
-3.1633e-07
-3.17709e-05
-3.21717e-07
-3.55338e-05
-3.88063e-07
-3.10005e-05
-3.36979e-07
-3.26991e-05
-3.57116e-07
-3.78343e-05
-3.59475e-07
-3.1882e-05
-3.64632e-07
-3.27673e-05
-3.36178e-07
-3.5684e-05
-4.33434e-07
-3.46908e-05
-3.91512e-07
-3.37553e-05
-4.03299e-07
-3.20081e-05
-4.11897e-07
-3.58128e-05
-4.61016e-07
-3.38726e-05
-5.09681e-07
-2.90931e-05
-5.26868e-07
-2.66437e-05
-5.31572e-07
-3.15577e-05
-5.44299e-07
-3.63862e-05
-7.79917e-07
-2.96614e-05
-5.66215e-07
-2.88693e-05
-1.33645e-07
-2.59576e-05
5.81309e-07
-2.1642e-05
6.51835e-07
-2.22328e-05
6.64695e-07
-2.0228e-05
3.60161e-07
-1.93714e-05
2.28711e-07
-1.76782e-05
1.22829e-07
-1.61404e-05
1.31835e-08
-1.9134e-05
-4.98532e-08
-1.52559e-05
-6.3788e-08
-1.22904e-05
-2.30509e-08
-1.09853e-05
-4.97719e-08
-1.17483e-05
-5.52702e-08
-1.41335e-05
-9.24426e-08
-1.26319e-05
-8.64828e-08
-1.17711e-05
-5.78531e-08
-9.99466e-06
-6.4544e-08
-8.81015e-06
-2.55672e-08
-9.88701e-06
-4.27276e-08
-7.80445e-06
-2.14113e-08
-5.79995e-06
7.72752e-09
-5.01247e-06
2.04545e-09
-4.8777e-06
-1.20742e-08
-4.54546e-06
-4.34331e-08
-3.86748e-06
-3.97731e-08
-3.19591e-06
-3.47606e-08
-2.18474e-06
5.81888e-09
-1.60194e-06
7.09878e-09
-1.0507e-06
9.20353e-09
7.56944e-10
-4.91375e-05
-2.10235e-06
-4.18973e-05
-1.10972e-06
-3.82007e-05
-8.0731e-07
-4.21188e-05
-5.17636e-07
-4.56056e-05
-4.84504e-07
-4.02055e-05
-4.91523e-07
-4.22132e-05
-3.85127e-07
-4.327e-05
-4.51719e-07
-3.74632e-05
-4.31046e-07
-3.74191e-05
-3.85729e-07
-4.42598e-05
-4.16954e-07
-4.53985e-05
-6.17296e-07
-4.416e-05
-4.72717e-07
-4.3007e-05
-6.48256e-07
-3.8191e-05
-5.83742e-07
-4.43254e-05
-8.01274e-07
-5.35467e-05
-9.10356e-07
-4.69646e-05
-6.74137e-07
-3.62304e-05
-7.40907e-08
-2.99467e-05
2.59327e-07
-2.89099e-05
-3.23582e-07
-3.15408e-05
-1.31854e-06
-3.32466e-05
-1.73958e-06
-3.19004e-05
-1.94831e-06
-3.32063e-05
-1.51327e-06
-3.12325e-05
-1.37452e-06
-2.80579e-05
-9.8875e-07
-3.09295e-05
-9.52788e-07
-3.35334e-05
-7.74665e-07
-3.45122e-05
-7.93896e-07
-3.26105e-05
-6.50232e-07
-3.09235e-05
-5.11655e-07
-3.18043e-05
-4.78036e-07
-2.94619e-05
-4.393e-07
-2.62221e-05
-3.1573e-07
-2.68442e-05
-2.98298e-07
-3.03097e-05
-2.81844e-07
-3.19705e-05
-2.80116e-07
-3.19929e-05
-2.71808e-07
-2.96153e-05
-2.62254e-07
-2.57728e-05
-2.39723e-07
-2.89404e-05
-2.43046e-07
-2.96892e-05
-2.85961e-07
-2.52928e-05
-2.49302e-07
-2.9753e-05
-2.46236e-07
-3.13573e-05
-3.69132e-07
-3.22512e-05
-2.90599e-07
-3.62118e-05
-4.08777e-07
-3.06831e-05
-3.43154e-07
-2.72311e-05
-3.15675e-07
-2.55228e-05
-3.12913e-07
-2.85924e-05
-2.95158e-07
-3.43449e-05
-2.92442e-07
-3.25193e-05
-3.40054e-07
-3.44107e-05
-3.50099e-07
-3.44425e-05
-3.31468e-07
-3.01665e-05
-3.01611e-07
-3.17851e-05
-3.38839e-07
-3.45441e-05
-3.3624e-07
-3.458e-05
-3.36556e-07
-3.02918e-05
-3.2477e-07
-2.8886e-05
-3.26592e-07
-2.96315e-05
-3.64543e-07
-2.76551e-05
-4.59409e-07
-2.70922e-05
-3.91267e-07
-2.65625e-05
-5.05079e-07
-2.55217e-05
-4.46144e-07
-2.92425e-05
-5.31339e-07
-3.41723e-05
-6.02131e-07
-2.92868e-05
-5.8252e-07
-2.93763e-05
-4.78247e-07
-2.88949e-05
5.91693e-07
-2.48818e-05
7.83169e-07
-2.54782e-05
4.60438e-07
-2.10319e-05
4.56447e-07
-2.12871e-05
1.56115e-07
-1.81636e-05
1.53911e-07
-1.62452e-05
4.81377e-08
-1.52352e-05
-3.07894e-09
-1.48526e-05
3.37331e-08
-1.40597e-05
-2.34976e-08
-1.05773e-05
2.85343e-08
-1.01004e-05
8.56055e-09
-1.03209e-05
-4.21294e-08
-1.10105e-05
-6.3115e-08
-1.01421e-05
-6.87139e-08
-8.72225e-06
-4.2825e-08
-7.88145e-06
-2.69376e-08
-7.54537e-06
-2.48486e-08
-7.72738e-06
-2.99911e-08
-7.10444e-06
-1.13534e-08
-6.38705e-06
-2.49711e-08
-5.45634e-06
-4.16707e-08
-4.17316e-06
-2.42985e-08
-3.22237e-06
-1.73763e-08
-2.69577e-06
-1.28112e-08
-2.37511e-06
-3.31869e-08
-1.71214e-06
-3.94869e-08
-1.13756e-06
-6.3133e-08
-5.17852e-08
-4.34432e-05
-1.76024e-06
-4.05437e-05
-9.12654e-07
-3.98099e-05
-6.60326e-07
-3.73179e-05
-4.11207e-07
-4.67822e-05
-3.54995e-07
-4.96138e-05
-3.78019e-07
-4.44099e-05
-4.52454e-07
-4.68511e-05
-4.52372e-07
-4.32021e-05
-4.68937e-07
-3.91291e-05
-4.81928e-07
-4.66795e-05
-4.94304e-07
-4.53888e-05
-6.24895e-07
-4.19623e-05
-5.6149e-07
-4.09557e-05
-6.56999e-07
-4.31155e-05
-5.58962e-07
-4.95442e-05
-8.83865e-07
-4.09357e-05
-1.10213e-06
-3.76722e-05
-1.1146e-06
-3.95599e-05
-1.11398e-06
-4.10131e-05
-9.58309e-07
-3.93407e-05
-4.50963e-07
-3.35171e-05
3.78589e-08
-3.46403e-05
1.89143e-08
-3.42548e-05
-4.77033e-07
-2.66043e-05
-5.2777e-07
-2.5009e-05
-5.3966e-07
-2.84742e-05
-6.17935e-07
-2.91832e-05
-7.72385e-07
-3.06395e-05
-5.62972e-07
-3.42798e-05
-5.48832e-07
-3.06935e-05
-4.5561e-07
-3.07311e-05
-4.50969e-07
-3.24957e-05
-4.52995e-07
-2.8582e-05
-3.87069e-07
-2.72938e-05
-2.81433e-07
-2.86662e-05
-2.73151e-07
-2.73667e-05
-2.92142e-07
-2.73975e-05
-2.53473e-07
-2.68031e-05
-2.48072e-07
-2.56646e-05
-2.46516e-07
-2.68594e-05
-2.35698e-07
-2.75132e-05
-2.27406e-07
-2.63192e-05
-2.66927e-07
-2.52292e-05
-2.79613e-07
-2.89591e-05
-2.25852e-07
-3.12862e-05
-3.07032e-07
-3.2179e-05
-2.55752e-07
-3.40659e-05
-3.34509e-07
-3.14216e-05
-2.7205e-07
-3.32123e-05
-3.08883e-07
-3.42043e-05
-2.84687e-07
-2.85377e-05
-3.24395e-07
-2.79076e-05
-2.63397e-07
-3.5334e-05
-2.8238e-07
-3.25034e-05
-3.32314e-07
-2.8e-05
-2.52054e-07
-3.17204e-05
-2.71778e-07
-3.26142e-05
-3.39319e-07
-2.87663e-05
-3.35425e-07
-2.62991e-05
-2.93218e-07
-2.63371e-05
-2.58805e-07
-2.75768e-05
-3.32848e-07
-3.28513e-05
-3.25998e-07
-3.20454e-05
-4.56335e-07
-3.05112e-05
-3.93917e-07
-2.98362e-05
-5.1816e-07
-2.85193e-05
-3.96589e-07
-3.07207e-05
-5.50277e-07
-2.86083e-05
-4.99749e-07
-2.86509e-05
-4.76161e-07
-3.01441e-05
-3.04106e-07
-2.89571e-05
1.89899e-08
-2.61538e-05
9.5494e-07
-2.50083e-05
5.54709e-07
-2.1413e-05
4.97762e-07
-1.88686e-05
3.13924e-07
-1.87955e-05
7.43255e-08
-1.45198e-05
7.58187e-08
-1.53195e-05
3.97189e-08
-1.51087e-05
5.04043e-08
-1.41281e-05
6.35548e-09
-1.60197e-05
1.66227e-08
-1.2951e-05
-1.23397e-08
-9.92885e-06
4.47695e-08
-9.11172e-06
5.36508e-08
-8.28852e-06
2.83213e-08
-8.00279e-06
4.82851e-08
-7.60926e-06
4.43379e-08
-6.81714e-06
4.58725e-08
-7.26593e-06
3.13489e-08
-7.86821e-06
5.40022e-09
-5.94213e-06
-9.88227e-09
-4.68767e-06
9.29668e-09
-4.15714e-06
2.6566e-08
-3.62148e-06
2.4122e-09
-3.2123e-06
1.47731e-08
-2.61253e-06
2.45294e-08
-1.88393e-06
3.76773e-08
-1.07776e-06
2.76314e-08
1.52497e-08
-4.88095e-05
-9.63547e-07
-4.94041e-05
-4.62055e-07
-4.68525e-05
-3.51368e-07
-4.33094e-05
-2.5515e-07
-3.65772e-05
-2.20732e-07
-4.03551e-05
-3.06926e-07
-4.48926e-05
-4.64647e-07
-3.67671e-05
-4.8925e-07
-3.68113e-05
-4.96356e-07
-3.95087e-05
-5.60559e-07
-4.1575e-05
-5.7315e-07
-4.77197e-05
-6.5432e-07
-5.07277e-05
-6.65787e-07
-4.38757e-05
-7.46426e-07
-4.36182e-05
-5.6472e-07
-4.96339e-05
-6.09745e-07
-4.27831e-05
-3.32781e-07
-4.14897e-05
3.88165e-09
-4.56908e-05
-1.39158e-07
-4.4394e-05
-2.59983e-07
-3.9412e-05
-2.48684e-07
-3.56371e-05
-7.36464e-08
-3.26503e-05
-1.14573e-07
-3.34457e-05
-2.56591e-07
-3.29924e-05
-5.71788e-07
-2.84816e-05
-4.85683e-07
-3.21885e-05
-5.57542e-07
-3.12693e-05
-6.91059e-07
-2.56539e-05
-4.92738e-07
-2.40492e-05
-4.28168e-07
-2.81911e-05
-3.47134e-07
-3.62043e-05
-3.92903e-07
-3.62868e-05
-3.99724e-07
-3.06222e-05
-2.79872e-07
-2.71143e-05
-2.72058e-07
-3.07384e-05
-2.26673e-07
-3.34268e-05
-2.29897e-07
-3.00426e-05
-2.14242e-07
-3.08753e-05
-2.03027e-07
-3.09143e-05
-2.70808e-07
-2.67325e-05
-2.1998e-07
-2.87265e-05
-2.27435e-07
-3.68518e-05
-2.71537e-07
-3.02762e-05
-3.12242e-07
-2.75004e-05
-2.16331e-07
-2.81954e-05
-2.29955e-07
-2.89277e-05
-2.56825e-07
-2.89703e-05
-2.89653e-07
-2.90147e-05
-2.11012e-07
-2.90554e-05
-2.76456e-07
-2.98237e-05
-2.61766e-07
-3.31797e-05
-2.93676e-07
-2.98994e-05
-2.38426e-07
-2.99362e-05
-2.56785e-07
-2.85443e-05
-2.71894e-07
-2.72804e-05
-2.52519e-07
-3.16273e-05
-2.422e-07
-3.76048e-05
-2.77693e-07
-3.54391e-05
-2.97808e-07
-2.80623e-05
-2.87163e-07
-2.94799e-05
-2.32824e-07
-3.2722e-05
-2.83122e-07
-3.27863e-05
-2.75005e-07
-3.57547e-05
-3.36766e-07
-3.69265e-05
-4.02534e-07
-3.13253e-05
-3.89495e-07
-2.98793e-05
-4.08213e-07
-2.99414e-05
-4.48123e-07
-2.61172e-05
-5.2162e-07
-2.64933e-05
-6.98029e-07
-3.22866e-05
-1.48418e-06
-3.69973e-05
4.91145e-08
-2.80453e-05
1.25145e-06
-2.22139e-05
8.38509e-07
-2.35046e-05
3.96796e-07
-1.86413e-05
2.78067e-07
-1.50479e-05
1.03703e-07
-1.4043e-05
3.62781e-08
-1.54107e-05
-9.54495e-09
-1.49496e-05
-6.4737e-08
-1.34147e-05
-4.92015e-08
-1.26065e-05
-8.96817e-08
-1.07672e-05
-5.38119e-08
-1.24908e-05
-5.92914e-08
-1.06721e-05
-6.78084e-08
-9.2525e-06
-2.83515e-08
-9.90831e-06
-5.00485e-08
-9.45378e-06
-5.06581e-08
-9.3059e-06
-5.36992e-08
-9.16205e-06
-6.95357e-08
-7.18481e-06
-4.98095e-08
-5.17295e-06
-2.73209e-08
-5.09659e-06
-3.02231e-08
-4.63902e-06
-7.406e-08
-3.39124e-06
-4.47216e-08
-3.20663e-06
-6.547e-08
-2.77534e-06
-6.92948e-08
-2.17783e-06
-5.71938e-08
-1.21685e-06
-5.44766e-08
-2.27876e-08
-3.07443e-05
-1.00139e-06
-3.74133e-05
-5.83867e-07
-4.48843e-05
-3.13238e-07
-3.53591e-05
-2.239e-07
-3.31488e-05
-1.99193e-07
-3.47228e-05
-2.44072e-07
-3.2309e-05
-2.74266e-07
-3.14359e-05
-2.90146e-07
-3.05637e-05
-2.89036e-07
-3.16746e-05
-2.88531e-07
-3.72878e-05
-3.21145e-07
-3.92406e-05
-3.76274e-07
-4.13474e-05
-3.47909e-07
-3.604e-05
-3.84385e-07
-3.24779e-05
-2.50984e-07
-3.97707e-05
-2.36308e-07
-4.18289e-05
-1.68772e-07
-4.10081e-05
-8.20804e-08
-3.49428e-05
-1.38914e-07
-2.80824e-05
-1.71366e-07
-2.66666e-05
-2.01465e-07
-2.96302e-05
-2.04097e-07
-3.20191e-05
-3.50511e-07
-3.40214e-05
-4.65854e-07
-3.16366e-05
-6.39461e-07
-2.80226e-05
-5.6135e-07
-3.27275e-05
-5.85335e-07
-3.36493e-05
-5.92661e-07
-3.36248e-05
-4.45129e-07
-3.27016e-05
-4.40054e-07
-3.0964e-05
-2.96213e-07
-3.49494e-05
-2.74987e-07
-3.03227e-05
-2.41382e-07
-2.96218e-05
-2.02348e-07
-3.1354e-05
-1.81119e-07
-2.57219e-05
-1.58695e-07
-2.41397e-05
-1.50756e-07
-2.41922e-05
-1.68949e-07
-2.92171e-05
-1.52368e-07
-3.17071e-05
-1.84069e-07
-3.09117e-05
-1.58895e-07
-3.47212e-05
-2.0253e-07
-3.58744e-05
-1.80928e-07
-3.28598e-05
-2.13966e-07
-2.67999e-05
-1.67385e-07
-3.03914e-05
-1.89151e-07
-3.73264e-05
-1.99006e-07
-2.89858e-05
-2.25998e-07
-2.76657e-05
-1.88053e-07
-3.52795e-05
-1.86584e-07
-3.64506e-05
-2.31918e-07
-2.92137e-05
-1.8985e-07
-2.85551e-05
-1.77728e-07
-3.25778e-05
-2.0911e-07
-3.35669e-05
-1.91926e-07
-3.09696e-05
-1.97645e-07
-2.8756e-05
-2.12858e-07
-2.95282e-05
-1.95448e-07
-3.11414e-05
-2.01059e-07
-2.89195e-05
-2.32026e-07
-2.58315e-05
-1.71551e-07
-2.58905e-05
-2.12571e-07
-2.77664e-05
-1.95485e-07
-3.32568e-05
-2.49334e-07
-3.24554e-05
-2.60244e-07
-3.25673e-05
-2.48927e-07
-3.10137e-05
-3.56221e-07
-2.76095e-05
-3.19719e-07
-2.71343e-05
-4.49532e-07
-3.07509e-05
-6.04641e-07
-3.22359e-05
-1.47782e-06
-2.66544e-05
-1.1199e-06
-2.34166e-05
1.39449e-06
-2.1953e-05
8.55668e-07
-2.26206e-05
1.78424e-07
-2.27781e-05
-1.78152e-07
-1.87287e-05
-1.73477e-07
-1.6225e-05
-9.39352e-08
-1.63353e-05
-7.8796e-08
-1.61469e-05
-1.2942e-07
-1.29899e-05
-9.06248e-08
-1.11508e-05
-5.86955e-08
-1.10668e-05
-6.24345e-08
-1.08046e-05
-7.05594e-08
-9.78195e-06
-4.16245e-08
-9.88764e-06
-4.93102e-08
-9.0083e-06
-5.31214e-08
-9.44462e-06
-4.64904e-08
-8.32502e-06
-7.86726e-08
-7.35275e-06
-3.23741e-08
-7.61644e-06
-3.61016e-08
-6.23437e-06
8.2975e-09
-5.41786e-06
-1.61097e-08
-4.12207e-06
-1.77239e-09
-3.53332e-06
1.58647e-08
-2.88356e-06
-8.64459e-09
-2.37255e-06
-2.77561e-09
-1.99276e-06
2.03922e-08
-9.76068e-07
2.51923e-08
1.72405e-09
-3.13189e-05
-2.96253e-05
-2.87346e-05
-3.07701e-05
-2.94011e-05
-2.94896e-05
-3.29421e-05
-3.1964e-05
-3.18458e-05
-3.27255e-05
-3.08416e-05
-3.26386e-05
-3.26769e-05
-3.27231e-05
-3.01175e-05
-2.59083e-05
-2.52157e-05
-2.67368e-05
-2.50991e-05
-2.1892e-05
-2.54089e-05
-2.83909e-05
-2.6097e-05
-2.24953e-05
-1.9546e-05
-2.04819e-05
-2.07781e-05
-1.97686e-05
-2.22289e-05
-2.35428e-05
-2.24759e-05
-2.26198e-05
-2.5301e-05
-2.34832e-05
-1.96063e-05
-2.15506e-05
-2.58724e-05
-2.59847e-05
-2.18545e-05
-2.05198e-05
-2.25727e-05
-2.26636e-05
-2.2766e-05
-2.23271e-05
-2.47363e-05
-2.5487e-05
-2.43328e-05
-3.05514e-05
-2.5835e-05
-2.40615e-05
-2.35843e-05
-2.26156e-05
-2.56226e-05
-2.38904e-05
-2.19065e-05
-2.66376e-05
-2.90346e-05
-2.6177e-05
-2.93039e-05
-2.57509e-05
-2.65578e-05
-2.9728e-05
-2.99039e-05
-3.00608e-05
-2.71523e-05
-3.13588e-05
-3.35589e-05
-3.28457e-05
-3.22765e-05
-3.39555e-05
-3.63918e-05
-3.84357e-05
-3.44904e-05
-2.64824e-05
-2.25481e-05
-1.68657e-05
-1.56436e-05
-1.74499e-05
-1.56077e-05
-1.29758e-05
-1.29412e-05
-1.21696e-05
-1.02197e-05
-1.08442e-05
-1.07858e-05
-9.64185e-06
-9.15587e-06
-8.22201e-06
-6.6512e-06
-6.71559e-06
-7.72778e-06
-6.78974e-06
-4.96699e-06
-4.51208e-06
-4.01147e-06
-2.71705e-06
-2.23389e-06
-2.18149e-06
-1.17891e-06
)
;

boundaryField
{
    inlet
    {
        type            fixedValue;
        value           uniform 0;
    }
    outlet
    {
        type            calculated;
        value           nonuniform List<scalar> 10(4.12961e-05 5.49672e-05 4.11527e-05 4.74108e-05 4.21933e-05 5.2109e-05 5.46944e-05 4.54364e-05 2.99702e-05 2.92546e-05);
    }
    walls
    {
        type            fixedValue;
        value           uniform 0;
    }
}


// ************************************************************************* //
