/*--------------------------------*- C++ -*----------------------------------*\
| =========                 |                                                 |
| \\      /  F ield         | foam-extend: Open Source CFD                    |
|  \\    /   O peration     | Version:     5.0                                |
|   \\  /    A nd           | Web:         http://www.foam-extend.org         |
|    \\/     M anipulation  |                                                 |
\*---------------------------------------------------------------------------*/
FoamFile
{
    version     2.0;
    format      ascii;
    class       surfaceScalarField;
    location    "6000";
    object      phi.water;
}
// * * * * * * * * * * * * * * * * * * * * * * * * * * * * * * * * * * * * * //

dimensions      [0 3 -1 0 0 0 0];

internalField   nonuniform List<scalar> 
1890
(
0
0
0
0
0
0
0
0
0
0
0
0
0
0
0
0
0
0
0
0
0
0
0
0
0
0
0
0
0
0
0
0
0
0
0
0
0
0
0
0
0
0
0
0
0
0
0
0
0
0
0
0
0
0
0
0
0
0
0
0
0
0
0
0
0
0
0
0
0
0
0
0
0
0
0
0
0
0
0
0
0
0
0
0
0
0
0
0
0
0
0
0
0
0
0
0
0
0
0
0
0
0
0
0
0
0
0
0
0
0
0
0
0
0
0
0
0
0
0
0
0
0
0
0
0
0
0
0
0
0
7.13626e-19
0
-5.16841e-10
-2.41766e-20
-6.868e-07
1.06795e-11
-1.65403e-05
-1.70637e-12
-4.9895e-05
6.49054e-07
-4.83974e-05
4.94806e-06
-5.40025e-05
2.98877e-06
-5.60933e-05
1.4041e-06
-5.23846e-05
5.20038e-07
-5.24311e-05
1.65733e-07
-5.3783e-05
-3.25509e-08
-5.50451e-05
-1.62947e-07
-5.80225e-05
-2.32202e-07
-5.28844e-05
-3.35125e-07
-4.87252e-05
-2.83487e-07
-5.08485e-05
-3.52324e-07
-5.0432e-05
-3.73731e-07
-5.42383e-05
-3.87494e-07
-5.68637e-05
-5.3028e-07
-4.88977e-05
-5.01829e-07
-4.97635e-05
-3.961e-07
-4.64973e-05
-5.40874e-07
-4.08565e-05
-3.81539e-07
-4.12445e-05
-4.00032e-07
-4.73036e-05
-3.99753e-07
-5.04475e-05
-5.94372e-07
-4.11533e-05
-5.3817e-07
-4.14904e-05
-5.17031e-07
-4.64303e-05
-6.60244e-07
-4.29657e-05
-7.12518e-07
-3.78855e-05
-6.35881e-07
-3.51806e-05
-6.24144e-07
-3.97625e-05
-5.90998e-07
-4.4192e-05
-1.03774e-06
-1.10664e-06
0
0
0
0
0
0
0
0
0
0
0
0
0
0
0
0
0
0
0
0
0
0
0
0
0
0
0
0
0
0
0
0
0
0
0
0
0
0
0
0
0
0
0
0
0
0
0
0
0
0
0
0
0
0
0
0
0
0
0
0
0
0
0
0
0
0
0
0
0
0
0
0
0
0
0
0
0
0
0
0
0
0
0
0
0
0
0
0
0
0
0
0
0
0
0
0
0
0
0
0
0
0
0
0
0
0
0
0
0
0
0
0
0
0
0
0
0
0
0
0
0
0
0
0
0
0
0
0
0
0
0
0
1.24505e-15
0
-4.22869e-09
-2.18034e-17
-1.62772e-06
1.51187e-12
-1.99582e-05
-1.52557e-12
-4.14862e-05
1.81723e-06
-3.96188e-05
4.80765e-06
-4.21481e-05
2.79577e-06
-4.96071e-05
1.178e-06
-5.6992e-05
3.04558e-07
-6.04023e-05
-1.78014e-07
-5.14917e-05
-3.83985e-07
-4.89036e-05
-3.52147e-07
-4.38541e-05
-4.21345e-07
-4.51251e-05
-3.53628e-07
-5.24322e-05
-5.37312e-07
-4.21702e-05
-5.65203e-07
-4.42635e-05
-5.19911e-07
-5.46525e-05
-6.65154e-07
-4.33329e-05
-7.22746e-07
-4.0201e-05
-5.523e-07
-4.61964e-05
-6.45799e-07
-4.96655e-05
-6.79127e-07
-4.38015e-05
-7.80547e-07
-3.66404e-05
-5.94617e-07
-3.47843e-05
-6.23068e-07
-3.95388e-05
-5.75615e-07
-4.97144e-05
-8.21991e-07
-4.73685e-05
-1.00012e-06
-4.05488e-05
-9.05253e-07
-4.09729e-05
-7.99524e-07
-4.48425e-05
-8.26959e-07
-4.65692e-05
-1.00936e-06
-4.25913e-05
-1.11432e-06
-1.13122e-06
0
0
0
0
0
0
0
0
0
0
0
0
0
0
0
0
0
0
0
0
0
0
0
0
0
0
0
0
0
0
0
0
0
0
0
0
0
0
0
0
0
0
0
0
0
0
0
0
0
0
0
0
0
0
0
0
0
0
0
0
0
0
0
0
0
0
0
0
0
0
0
0
0
0
0
0
0
0
0
0
0
0
0
0
0
0
0
0
0
0
0
0
0
0
0
0
0
0
0
0
0
0
0
0
0
0
0
0
0
0
0
0
0
0
0
0
0
0
0
0
0
0
0
0
0
0
0
0
0
0
0
0
0
0
1.58138e-15
0
-4.69175e-09
-3.2059e-17
-1.54776e-06
3.28157e-12
-2.69849e-05
1.53779e-08
-5.01654e-05
1.05876e-06
-3.91561e-05
1.41666e-06
-3.7852e-05
6.38887e-07
-3.82985e-05
2.03206e-07
-3.79619e-05
-6.47945e-08
-4.64138e-05
-2.60929e-07
-4.85097e-05
-5.52274e-07
-4.06098e-05
-4.83449e-07
-3.70932e-05
-4.55168e-07
-3.56085e-05
-4.89857e-07
-4.06846e-05
-5.07109e-07
-4.02749e-05
-6.55921e-07
-3.76299e-05
-5.64519e-07
-4.21188e-05
-6.2567e-07
-4.07493e-05
-6.32053e-07
-3.61467e-05
-6.0654e-07
-3.67653e-05
-5.66801e-07
-3.6423e-05
-6.24683e-07
-4.18162e-05
-5.69374e-07
-5.01236e-05
-9.04936e-07
-4.40289e-05
-9.29797e-07
-4.22878e-05
-8.26364e-07
-4.40288e-05
-9.60332e-07
-4.32815e-05
-1.09942e-06
-3.62303e-05
-9.6622e-07
-3.75611e-05
-8.80341e-07
-3.96214e-05
-1.07871e-06
-3.3384e-05
-9.09357e-07
-7.47426e-07
0
0
0
0
0
0
0
0
0
0
0
0
0
0
0
0
0
0
0
0
0
0
0
0
0
0
0
0
0
0
0
0
0
0
0
0
0
0
0
0
0
0
0
0
0
0
0
0
0
0
0
0
0
0
0
0
0
0
0
0
0
0
0
0
0
0
0
0
0
0
0
0
0
0
0
0
0
0
0
0
0
0
0
0
0
0
0
0
0
0
0
0
0
0
0
0
0
0
0
0
0
0
0
0
0
0
0
0
0
0
0
0
0
0
0
0
0
0
0
0
0
0
0
0
0
0
0
0
0
0
0
0
0
0
3.52103e-16
0
-2.86818e-09
-9.21409e-18
-1.91178e-06
6.41927e-11
-2.48139e-05
3.96473e-08
-4.7521e-05
5.0714e-07
-5.26111e-05
5.23314e-07
-4.29719e-05
3.83785e-07
-4.18064e-05
2.47491e-07
-4.01395e-05
2.47641e-08
-4.18673e-05
-1.06684e-07
-4.85624e-05
-3.91304e-07
-4.59367e-05
-5.39094e-07
-4.85326e-05
-5.618e-07
-4.55522e-05
-6.41148e-07
-3.91428e-05
-6.04879e-07
-3.90105e-05
-6.17077e-07
-4.07152e-05
-7.18574e-07
-3.77334e-05
-7.39182e-07
-3.60394e-05
-5.9048e-07
-3.58147e-05
-6.47531e-07
-3.48749e-05
-5.34372e-07
-3.70091e-05
-5.96127e-07
-4.36497e-05
-6.42664e-07
-5.14466e-05
-7.95756e-07
-4.0341e-05
-8.91114e-07
-3.39811e-05
-7.12517e-07
-3.86086e-05
-8.38173e-07
-3.79463e-05
-9.78457e-07
-4.05475e-05
-9.05135e-07
-4.4263e-05
-1.08382e-06
-4.09461e-05
-1.01742e-06
-3.58612e-05
-1.00083e-06
-5.90614e-07
0
0
0
0
0
0
0
0
0
0
0
0
0
0
0
0
0
0
0
0
0
0
0
0
0
0
0
0
0
0
0
0
0
0
0
0
0
0
0
0
0
0
0
0
0
0
0
0
0
0
0
0
0
0
0
0
0
0
0
0
0
0
0
0
0
0
0
0
0
0
0
0
0
0
0
0
0
0
0
0
0
0
0
0
0
0
0
0
0
0
0
0
0
0
0
0
0
0
0
0
0
0
0
0
0
0
0
0
0
0
0
0
0
0
0
0
0
0
0
0
0
0
0
0
0
0
0
0
0
0
0
0
0
0
2.54005e-18
0
-6.99676e-10
-7.96174e-20
-5.4144e-07
-1.78364e-12
-1.52594e-05
-1.26313e-09
-3.96806e-05
4.24375e-08
-4.30673e-05
4.23273e-07
-4.69885e-05
6.1802e-07
-4.49374e-05
4.3971e-07
-4.80429e-05
1.68283e-07
-4.48812e-05
-6.5208e-08
-4.54419e-05
-2.26759e-07
-5.5097e-05
-5.02498e-07
-4.60022e-05
-5.04938e-07
-3.96845e-05
-5.05746e-07
-3.78683e-05
-4.37166e-07
-4.36633e-05
-4.69138e-07
-5.43772e-05
-6.73786e-07
-5.06843e-05
-7.86483e-07
-5.04329e-05
-7.36257e-07
-4.44689e-05
-7.7483e-07
-4.31303e-05
-6.08883e-07
-5.04967e-05
-7.55968e-07
-4.20467e-05
-8.30065e-07
-3.45733e-05
-6.77827e-07
-3.36432e-05
-6.30288e-07
-3.72809e-05
-6.84247e-07
-3.85434e-05
-8.20923e-07
-3.90449e-05
-8.23026e-07
-3.72988e-05
-9.16681e-07
-3.42231e-05
-8.47783e-07
-3.80224e-05
-8.25596e-07
-4.40087e-05
-9.9161e-07
-1.0414e-06
0
0
0
0
0
0
0
0
0
0
0
0
0
0
0
0
0
0
0
0
0
0
0
0
0
0
0
0
0
0
0
0
0
0
0
0
0
0
0
0
0
0
0
0
0
0
0
0
0
0
0
0
0
0
0
0
0
0
0
0
0
0
0
0
0
0
0
0
0
0
0
0
0
0
0
0
0
0
0
0
0
0
0
0
0
0
0
0
0
0
0
0
0
0
0
0
0
0
0
0
0
0
0
0
0
0
0
0
0
0
0
0
0
0
0
0
0
0
0
0
0
0
0
0
0
0
0
0
0
0
0
0
0
0
5.9642e-19
0
-5.72408e-10
-1.9837e-20
-4.5577e-07
1.61959e-11
-1.75082e-05
8.18517e-09
-4.11514e-05
4.50078e-07
-5.15606e-05
7.34724e-07
-4.92796e-05
6.95319e-07
-4.61083e-05
4.29961e-07
-4.99648e-05
6.18303e-08
-4.43688e-05
-2.00432e-07
-4.35963e-05
-2.78058e-07
-4.21043e-05
-4.71563e-07
-4.46457e-05
-4.39288e-07
-4.29753e-05
-5.91508e-07
-3.50525e-05
-4.50394e-07
-3.57313e-05
-4.67562e-07
-3.8951e-05
-4.78343e-07
-4.38346e-05
-5.80985e-07
-4.2375e-05
-6.46829e-07
-3.9178e-05
-5.86944e-07
-3.79894e-05
-5.78875e-07
-3.96162e-05
-5.61923e-07
-4.34972e-05
-6.36269e-07
-4.31108e-05
-7.3373e-07
-4.27056e-05
-7.14056e-07
-3.99484e-05
-7.43531e-07
-3.50144e-05
-7.23106e-07
-3.23731e-05
-6.94314e-07
-3.49642e-05
-6.67088e-07
-3.87757e-05
-7.74236e-07
-4.25313e-05
-7.70795e-07
-4.68451e-05
-1.01621e-06
-1.18715e-06
0
0
0
0
0
0
0
0
0
0
0
0
0
0
0
0
0
0
0
0
0
0
0
0
0
0
0
0
0
0
0
0
0
0
0
0
0
0
0
0
0
0
0
0
0
0
0
0
0
0
0
0
0
0
0
0
0
0
0
0
0
0
0
0
0
0
0
0
0
0
0
0
0
0
0
0
0
0
0
0
0
0
0
0
0
0
0
0
0
0
0
0
0
0
0
0
0
0
0
0
0
0
0
0
0
0
0
0
0
0
0
0
0
0
0
0
0
0
0
0
0
0
0
0
0
0
0
0
0
0
0
0
0
0
7.89591e-23
0
-5.59377e-11
-3.08182e-24
-2.09213e-07
-8.79806e-12
-9.58394e-06
-1.39536e-08
-4.4499e-05
-3.42795e-07
-4.67562e-05
3.78201e-07
-5.07746e-05
5.76813e-07
-4.39866e-05
3.88209e-07
-4.54135e-05
1.42117e-07
-4.56653e-05
-2.14299e-07
-3.87016e-05
-2.8745e-07
-4.3675e-05
-3.68918e-07
-4.44604e-05
-5.65363e-07
-4.45108e-05
-4.89913e-07
-5.2437e-05
-6.84773e-07
-4.37037e-05
-6.74889e-07
-3.60904e-05
-5.70605e-07
-3.51925e-05
-5.91684e-07
-3.43406e-05
-5.16523e-07
-3.568e-05
-5.43756e-07
-3.62114e-05
-5.62083e-07
-3.52224e-05
-5.40735e-07
-4.13248e-05
-5.7413e-07
-4.68038e-05
-7.95303e-07
-3.84158e-05
-7.04463e-07
-3.4709e-05
-6.18051e-07
-3.50589e-05
-7.23e-07
-3.61755e-05
-6.81954e-07
-3.82034e-05
-8.1509e-07
-3.84213e-05
-8.9787e-07
-3.76366e-05
-8.9978e-07
-3.58742e-05
-9.42384e-07
-8.93441e-07
0
0
0
0
0
0
0
0
0
0
0
0
0
0
0
0
0
0
0
0
0
0
0
0
0
0
0
0
0
0
0
0
0
0
0
0
0
0
0
0
0
0
0
0
0
0
0
0
0
0
0
0
0
0
0
0
0
0
0
0
0
0
0
0
0
0
0
0
0
0
0
0
0
0
0
0
0
0
0
0
0
0
0
0
0
0
0
0
0
0
0
0
0
0
0
0
0
0
0
0
0
0
0
0
0
0
0
0
0
0
0
0
0
0
0
0
0
0
0
0
0
0
0
0
0
0
0
0
0
0
0
0
0
0
9.80841e-21
0
-1.77877e-10
-3.16193e-22
-3.82698e-07
4.20812e-12
-1.82805e-05
1.83898e-09
-5.11446e-05
6.9474e-07
-4.49126e-05
2.16904e-06
-4.61964e-05
1.06623e-06
-5.00646e-05
5.17943e-07
-4.23832e-05
1.25356e-07
-3.81475e-05
-1.05095e-07
-3.80572e-05
-1.93388e-07
-4.5184e-05
-2.61972e-07
-4.46713e-05
-5.03541e-07
-4.37772e-05
-3.90803e-07
-4.22501e-05
-5.31001e-07
-3.9434e-05
-4.23239e-07
-4.81249e-05
-5.16629e-07
-4.28217e-05
-5.40094e-07
-4.07365e-05
-4.31797e-07
-4.59603e-05
-5.21947e-07
-4.69267e-05
-5.38163e-07
-4.93344e-05
-6.64413e-07
-5.1949e-05
-6.33301e-07
-4.30982e-05
-7.87299e-07
-3.52817e-05
-5.03398e-07
-4.0415e-05
-5.01941e-07
-3.96687e-05
-6.72776e-07
-3.64906e-05
-5.54911e-07
-4.17616e-05
-7.16887e-07
-4.60199e-05
-8.38953e-07
-4.80141e-05
-1.006e-06
-4.38741e-05
-1.00467e-06
-1.03942e-06
0
0
0
0
0
0
0
0
0
0
0
0
0
0
0
0
0
0
0
0
0
0
0
0
0
0
0
0
0
0
0
0
0
0
0
0
0
0
0
0
0
0
0
0
0
0
0
0
0
0
0
0
0
0
0
0
0
0
0
0
0
0
0
0
0
0
0
0
0
0
0
0
0
0
0
0
0
0
0
0
0
0
0
0
0
0
0
0
0
0
0
0
0
0
0
0
0
0
0
0
0
0
0
0
0
0
0
0
0
0
0
0
0
0
0
0
0
0
0
0
0
0
0
0
0
0
0
0
0
0
0
0
0
0
3.1925e-30
0
-7.52808e-13
-8.9638e-32
-3.66135e-08
1.60923e-14
-2.93985e-06
2.15889e-10
-2.72713e-05
1.91877e-08
-4.32717e-05
1.96716e-06
-4.29629e-05
2.59581e-06
-4.89098e-05
1.03637e-06
-5.06592e-05
1.39762e-07
-4.51383e-05
-2.216e-07
-4.16187e-05
-2.46625e-07
-4.50823e-05
-2.46218e-07
-4.59625e-05
-4.03095e-07
-3.93916e-05
-3.65084e-07
-3.59809e-05
-3.51828e-07
-3.84954e-05
-3.20199e-07
-3.91106e-05
-4.10531e-07
-3.82157e-05
-3.49914e-07
-4.08161e-05
-3.84681e-07
-3.95956e-05
-4.09787e-07
-4.49263e-05
-4.39623e-07
-4.09326e-05
-5.98125e-07
-4.08999e-05
-4.65912e-07
-4.36791e-05
-6.77228e-07
-4.01308e-05
-5.11021e-07
-3.76248e-05
-5.72728e-07
-3.32315e-05
-5.1366e-07
-3.35224e-05
-5.32676e-07
-3.29645e-05
-6.01197e-07
-3.65022e-05
-6.47978e-07
-3.75565e-05
-9.06796e-07
-3.5116e-05
-7.4739e-07
-8.49107e-07
0
0
0
0
0
0
0
0
0
0
0
0
0
0
0
0
0
0
0
0
0
0
0
0
0
0
0
0
0
0
0
0
0
0
0
0
0
0
0
0
0
0
0
0
0
0
0
0
0
0
0
0
0
0
0
0
0
0
0
0
0
0
0
0
0
0
0
0
9.94571e-22
-1.45271e-10
-2.89995e-07
-1.28521e-05
-3.73542e-05
-4.29965e-05
-3.8489e-05
-3.29473e-05
-3.53035e-05
-4.06868e-05
-3.86155e-05
-3.43221e-05
-3.7204e-05
-3.60993e-05
-3.31277e-05
-3.72498e-05
-3.91491e-05
-3.71513e-05
-3.81606e-05
-3.61592e-05
-3.2347e-05
-3.62839e-05
-4.49302e-05
-4.20887e-05
-3.50324e-05
-3.76137e-05
-3.71526e-05
-3.20446e-05
-3.77243e-05
-4.5499e-05
-4.09726e-05
)
;

boundaryField
{
    inlet
    {
        type            fixedValue;
        value           nonuniform List<scalar> 10(-5e-05 -5e-05 -5e-05 -5e-05 -5e-05 -5e-05 -5e-05 -5e-05 -5e-05 -5e-05);
    }
    outlet
    {
        type            calculated;
        value           uniform 0;
    }
    walls
    {
        type            fixedValue;
        value           uniform 0;
    }
}


// ************************************************************************* //
