/*--------------------------------*- C++ -*----------------------------------*\
| =========                 |                                                 |
| \\      /  F ield         | foam-extend: Open Source CFD                    |
|  \\    /   O peration     | Version:     5.0                                |
|   \\  /    A nd           | Web:         http://www.foam-extend.org         |
|    \\/     M anipulation  |                                                 |
\*---------------------------------------------------------------------------*/
FoamFile
{
    version     2.0;
    format      ascii;
    class       surfaceScalarField;
    location    "6000";
    object      phi.gas;
}
// * * * * * * * * * * * * * * * * * * * * * * * * * * * * * * * * * * * * * //

dimensions      [0 3 -1 0 0 0 0];

internalField   nonuniform List<scalar> 
1890
(
0
0
0
0
0
0
0
0
0
0
0
0
0
0
0
0
0
0
0
0
0
0
0
0
0
0
0
0
3.2746e-273
-1.7381e-230
6.55808e-197
-2.28026e-130
1.1287e-111
-1.54165e-93
2.19132e-82
-1.04445e-51
2.01335e-59
-4.90014e-38
1.80309e-37
-5.1897e-26
2.85971e-32
-5.48696e-16
8.70275e-29
-9.07601e-15
9.61014e-27
-6.52847e-14
4.19483e-25
-1.67897e-13
7.83832e-21
-4.70897e-13
1.28112e-17
-5.88726e-12
8.10667e-16
-3.15536e-11
6.09928e-15
-9.62441e-11
-2.89412e-13
-1.25752e-10
-2.15178e-13
-3.39674e-10
-1.85957e-12
-1.94141e-10
-3.45251e-12
-5.47586e-10
-2.67865e-10
-8.35039e-10
-1.01447e-08
-9.72762e-09
-2.91351e-08
-3.84113e-08
-5.94452e-08
-5.11902e-08
-9.12069e-08
-7.93551e-08
-2.79844e-07
-6.64833e-08
-2.29051e-07
-7.53035e-08
-1.93016e-07
-8.95621e-08
-3.44095e-07
-7.2756e-08
-2.84795e-07
-8.9425e-08
-6.34558e-07
-8.3349e-08
-4.12531e-07
-8.52487e-08
-5.21801e-07
-1.12899e-07
-1.77404e-06
-9.8174e-08
-1.13501e-05
-1.23587e-07
-3.56297e-05
-8.07494e-08
-5.16558e-05
4.57064e-07
-4.84982e-05
1.1842e-06
-4.64203e-05
1.31937e-06
-4.58607e-05
1.37683e-06
-4.67501e-05
1.72943e-06
-5.4094e-05
1.38067e-06
-5.36347e-05
1.57706e-06
-5.78556e-05
1.45889e-06
-6.05575e-05
1.82535e-06
-5.85225e-05
1.80377e-06
-6.69074e-05
1.61284e-06
-7.03605e-05
1.6752e-06
-6.74934e-05
1.93651e-06
-5.56429e-05
2.17031e-06
-5.54692e-05
1.87174e-06
-6.55939e-05
1.94774e-06
-6.01225e-05
1.85166e-06
-6.11217e-05
1.95147e-06
-6.47737e-05
1.47724e-06
-6.4803e-05
1.04192e-06
-6.97327e-05
-1.35838e-06
-7.32168e-05
2.28675e-06
-7.66019e-05
6.3172e-06
-8.43475e-05
5.03436e-06
-9.05577e-05
3.51445e-06
-8.49439e-05
3.07661e-06
-8.59204e-05
3.10564e-06
-8.92413e-05
3.21437e-06
-9.26505e-05
3.25279e-06
-9.9216e-05
2.74044e-06
-9.19115e-05
3.23866e-06
-8.61777e-05
2.41863e-06
-9.16407e-05
3.38567e-06
-9.26857e-05
3.24318e-06
-0.000101837
2.75557e-06
-0.000109104
3.9701e-06
-9.59007e-05
4.06971e-06
-0.000100088
3.03484e-06
-9.56044e-05
4.06603e-06
-8.63021e-05
3.91142e-06
-8.93741e-05
4.59411e-06
-0.000105589
3.86483e-06
-0.000115556
4.39164e-06
-9.72147e-05
4.17539e-06
-0.00010143
5.23553e-06
-0.000117301
6.44942e-06
-0.000112244
6.22188e-06
-0.000102788
5.85853e-06
-9.92861e-05
6.86531e-06
-0.000117509
7.56313e-06
-0.000135997
9.56232e-06
8.43423e-06
0
0
0
0
0
0
0
0
0
0
0
0
0
0
0
0
0
0
0
0
0
0
0
-1.24748e-296
1.4822e-313
0
1.94508e-158
-1.15242e-146
8.12396e-90
-1.00176e-72
8.02133e-65
-3.13399e-41
8.44628e-37
-2.11675e-29
1.30624e-27
-1.24242e-15
1.20076e-19
-1.87511e-13
-8.84455e-13
-1.9525e-11
-1.34505e-11
-7.6536e-10
-8.37035e-11
-1.96475e-09
-1.96321e-10
-3.03199e-09
-5.27563e-10
-4.25827e-09
-8.30051e-09
-9.00781e-09
-4.03643e-08
-3.70995e-08
-9.85782e-08
-9.43958e-08
-1.18425e-07
-1.00516e-07
-2.88508e-07
-1.37853e-07
-1.62672e-07
-1.25638e-07
-4.60866e-07
-9.13857e-08
-7.99588e-07
-1.06761e-07
-1.30821e-05
-1.08511e-07
-4.64188e-05
-7.5465e-08
-5.14618e-05
4.06988e-07
-5.74462e-05
1.47478e-06
-5.58455e-05
2.10692e-06
-5.40297e-05
1.89086e-06
-6.20624e-05
1.8956e-06
-6.05385e-05
2.47351e-06
-6.09458e-05
2.52095e-06
-6.53626e-05
2.28138e-06
-6.40469e-05
2.77743e-06
-7.41855e-05
2.18706e-06
-7.98027e-05
2.57007e-06
-8.40739e-05
2.78524e-06
-9.95894e-05
2.88904e-06
-0.000105016
2.67487e-06
-9.4391e-05
2.87278e-06
-8.35786e-05
3.07242e-06
-7.86374e-05
3.22507e-06
-9.05458e-05
3.25373e-06
-8.68403e-05
3.57506e-06
-7.46914e-05
2.81231e-06
-7.73288e-05
2.82293e-06
-8.20256e-05
2.87766e-06
-9.40319e-05
3.68131e-06
-8.60829e-05
4.05239e-06
-7.63262e-05
3.52061e-06
-8.43316e-05
3.09707e-06
-0.000104322
3.81184e-06
-0.00011503
4.39155e-06
-0.000106553
3.83932e-06
-9.68032e-05
3.69149e-06
-0.000108501
2.94367e-06
-0.000103267
3.00669e-06
-0.000100932
2.37331e-06
-0.000119222
1.67779e-06
-0.000116545
-6.09274e-08
-0.000108646
-5.81304e-07
-0.000105039
7.75327e-06
-0.000105745
1.29934e-05
-0.000111993
1.00691e-05
-0.000133056
6.01519e-06
-0.000153415
5.32908e-06
-0.000163214
4.58351e-06
-0.000139711
4.6039e-06
-0.000132949
5.39671e-06
-0.000119826
4.94608e-06
-0.000123596
4.12314e-06
-0.000144773
4.52194e-06
-0.000117184
4.38572e-06
-0.000123712
4.75834e-06
-0.000154031
4.74917e-06
-0.000123098
5.37062e-06
-0.000115058
5.04031e-06
-0.000133316
5.2265e-06
-0.000144727
5.15815e-06
-0.000128851
6.09938e-06
-0.000108782
5.22856e-06
-0.000104138
6.9365e-06
-0.000119394
6.59472e-06
-0.00015148
7.20877e-06
-0.000145514
7.87319e-06
-0.000125527
7.84921e-06
-0.000127747
7.58963e-06
-0.000140659
7.25613e-06
-0.00014691
9.60225e-06
-0.000134682
8.50341e-06
7.33434e-06
0
-1.47382e-211
1.75932e-303
-1.01687e-172
4.64689e-295
-1.70757e-149
4.72531e-278
-2.61343e-145
3.62262e-254
-1.08261e-136
2.84446e-240
-7.21756e-125
8.50552e-238
-5.33403e-118
1.04343e-233
-8.38122e-117
4.33231e-226
-8.78478e-115
1.35607e-220
-4.359e-111
5.09876e-200
-3.11146e-108
3.16886e-215
-6.08992e-98
1.64751e-101
0
2.97556e-51
-7.87049e-46
9.05063e-30
-3.77756e-22
7.86785e-22
-7.32667e-14
-2.12314e-12
-4.81622e-12
-3.10682e-10
-1.1509e-09
-3.18572e-08
-1.28759e-08
-1.19462e-06
-5.52194e-07
-2.35235e-06
-2.41111e-06
-2.95155e-06
-2.7968e-06
-3.78445e-06
-1.03683e-06
-9.99183e-06
-1.11599e-07
-4.4815e-05
-1.30723e-07
-8.23369e-05
2.72396e-07
-8.47965e-05
1.6534e-06
-9.32988e-05
2.39392e-06
-9.93449e-05
2.3889e-06
-7.91237e-05
2.49542e-06
-7.38533e-05
2.64826e-06
-8.05426e-05
3.13376e-06
-8.22452e-05
2.61191e-06
-8.02034e-05
3.32105e-06
-9.26887e-05
3.31207e-06
-0.000107791
4.13844e-06
-9.51745e-05
3.85331e-06
-8.35706e-05
4.11603e-06
-9.07981e-05
3.99731e-06
-0.00011697
3.72982e-06
-0.000105426
4.28156e-06
-0.000106895
4.2074e-06
-0.000102321
4.22324e-06
-8.77954e-05
3.38252e-06
-0.000104627
4.1952e-06
-0.000117636
3.84042e-06
-0.000106573
4.36431e-06
-9.99365e-05
3.70709e-06
-0.000108614
3.79409e-06
-0.000122039
3.778e-06
-0.000130483
5.14734e-06
-0.000123958
4.35388e-06
-0.000109308
4.33276e-06
-0.000100116
3.87463e-06
-9.86255e-05
3.74685e-06
-0.000117687
4.48169e-06
-0.000145276
4.56207e-06
-0.000151169
5.85368e-06
-0.000130402
5.31165e-06
-0.000127668
4.77219e-06
-0.000149157
5.30112e-06
-0.000140887
4.78445e-06
-0.000133554
5.1733e-06
-0.000120365
4.99235e-06
-0.000104718
3.8112e-06
-0.000115313
3.67859e-06
-0.000128243
2.99771e-06
-0.000129059
2.66676e-06
-0.000121275
1.96156e-06
-0.000108767
2.45146e-06
-0.000119545
6.63054e-06
-0.000154758
1.35102e-05
-0.000139334
1.18851e-05
-0.000124146
9.12697e-06
-0.000125682
6.39677e-06
-0.000122729
6.39742e-06
-0.000148847
5.12569e-06
-0.000156043
7.11698e-06
-0.000129992
6.1338e-06
-0.000118339
5.79005e-06
-0.00011321
5.99803e-06
-0.000128985
5.15875e-06
-0.000127823
5.65365e-06
-0.000119136
5.24156e-06
-0.000133321
5.8498e-06
-0.000129036
5.58031e-06
-0.000114399
5.66044e-06
-0.000116254
5.28566e-06
-0.000115201
5.90657e-06
-0.000132178
6.07497e-06
-0.000158677
8.77809e-06
-0.000139429
8.53291e-06
-0.00013384
6.05215e-06
-0.000139355
6.51961e-06
-0.000137035
7.72028e-06
-0.000114712
6.95038e-06
-0.000118916
8.07255e-06
-0.000125407
8.90828e-06
-0.000105625
8.74625e-06
7.63643e-06
2.52895e-117
-3.94754e-69
6.3771e-102
-1.70432e-56
4.16027e-99
-6.58426e-49
2.63899e-93
-1.23707e-47
2.01134e-85
-7.30624e-45
7.35166e-81
-5.42252e-41
4.1768e-80
-8.85726e-39
9.27186e-79
-2.32307e-38
2.96976e-76
-1.02874e-37
2.65557e-74
-1.42408e-36
1.77998e-67
-1.11708e-35
1.11029e-72
-2.96986e-32
5.35634e-33
-3.52398e-34
5.10403e-17
-1.57076e-14
-1.26372e-10
-8.97191e-11
-8.1438e-09
-8.28367e-09
-1.93377e-06
-4.44645e-08
-1.97503e-05
-2.55789e-06
-7.38666e-05
-4.08666e-06
-8.65984e-05
-1.21256e-06
-0.000111902
3.35797e-07
-0.000110191
3.09623e-07
-9.51301e-05
1.66619e-07
-0.00010176
1.5139e-07
-0.00010854
6.25465e-07
-0.000111715
1.48748e-06
-0.000133135
2.38834e-06
-0.000115311
3.1816e-06
-9.73448e-05
3.2437e-06
-0.000110284
3.60938e-06
-0.00013509
3.58595e-06
-0.000117463
4.85868e-06
-0.000118307
3.72234e-06
-0.000137821
4.61012e-06
-0.000126904
4.16221e-06
-0.00011762
5.48725e-06
-0.000124989
5.18102e-06
-0.000146059
5.5406e-06
-0.000119836
6.36426e-06
-0.000104202
4.27823e-06
-0.000124704
4.96997e-06
-0.000122063
4.93469e-06
-0.000103687
4.20002e-06
-0.000120343
4.59819e-06
-0.000120914
5.60142e-06
-0.000118591
4.50244e-06
-0.00012889
5.17195e-06
-0.000119914
4.41982e-06
-0.000109576
5.07909e-06
-0.000124275
4.90894e-06
-0.000131535
5.33966e-06
-0.000116416
5.0217e-06
-0.000114175
4.6794e-06
-0.00010717
5.09424e-06
-0.000123762
4.85949e-06
-0.000127399
5.23576e-06
-0.000134834
5.27606e-06
-0.000151692
6.44451e-06
-0.000143535
4.9761e-06
-0.000148238
6.20256e-06
-0.000133022
5.44706e-06
-0.000140818
5.23169e-06
-0.000163946
5.37306e-06
-0.000145547
5.34202e-06
-0.000145882
4.9338e-06
-0.000131255
4.44771e-06
-0.000125269
3.24479e-06
-0.000129184
3.15513e-06
-0.00012125
3.50553e-06
-0.000146576
3.76137e-06
-0.000177836
6.29214e-06
-0.000170458
1.11498e-05
-0.000180434
9.17234e-06
-0.000154465
9.64738e-06
-0.000142759
8.46735e-06
-0.000137141
7.63045e-06
-0.000140364
7.43717e-06
-0.000162494
6.23607e-06
-0.000152823
7.65155e-06
-0.000160518
7.13773e-06
-0.000150285
6.47946e-06
-0.000128453
5.57005e-06
-0.000127498
5.33938e-06
-0.000132704
6.79631e-06
-0.00012271
7.36605e-06
-0.000116739
6.30879e-06
-0.000115728
7.34521e-06
-0.000112292
5.9267e-06
-0.000118841
7.249e-06
-0.000139775
7.67716e-06
-0.000164433
7.02097e-06
-0.000128754
6.65197e-06
-0.000108128
5.79831e-06
-0.000122616
6.77023e-06
-0.000120352
6.97715e-06
-0.000128349
7.19108e-06
-0.000139972
7.62879e-06
-0.000129394
7.57915e-06
-0.000113361
9.61725e-06
1.02511e-05
7.13366e-40
-5.56561e-22
7.4324e-35
-3.74771e-18
5.58437e-34
-7.224e-16
3.93243e-32
-1.07378e-15
1.54579e-29
-3.60474e-15
4.95357e-28
-1.35728e-14
8.77589e-28
-2.23917e-14
2.1539e-27
-3.60264e-14
1.46044e-26
-3.61486e-14
5.03677e-26
-4.65158e-14
1.1462e-23
-7.28094e-14
5.90925e-25
-3.21902e-13
-2.73631e-11
-9.00141e-14
-1.52724e-07
-9.35537e-14
-1.39426e-05
4.48717e-09
-6.89263e-05
3.80313e-07
-9.74572e-05
3.6069e-06
-0.000111981
7.07919e-06
-0.000129654
4.85536e-06
-0.00014554
9.23864e-07
-0.000152756
-2.84642e-07
-0.000151083
-8.09406e-07
-0.000129999
-9.80513e-07
-0.000132832
-5.33761e-07
-0.00013933
-3.17401e-08
-0.000121198
1.0789e-06
-0.000117631
1.74794e-06
-0.000129979
2.67914e-06
-0.000145636
3.70394e-06
-0.000123308
4.44539e-06
-0.000123458
3.9973e-06
-0.000134106
4.8379e-06
-0.00012107
4.56359e-06
-0.000110449
4.89617e-06
-0.000125041
4.22182e-06
-0.000157849
5.27964e-06
-0.000144391
5.57209e-06
-0.00014928
5.83442e-06
-0.000133544
6.22482e-06
-0.000123955
5.33768e-06
-0.000121296
5.33304e-06
-0.00010614
4.54273e-06
-0.000116373
5.20517e-06
-0.000135653
5.03606e-06
-0.00013607
4.99757e-06
-0.000132915
5.96279e-06
-0.000123595
5.04418e-06
-0.000130381
5.59e-06
-0.000159419
5.91413e-06
-0.000142111
5.78247e-06
-0.000135016
4.77461e-06
-0.00013188
5.1509e-06
-0.000135703
5.31894e-06
-0.000152025
6.4614e-06
-0.000132845
5.62384e-06
-0.000140357
5.95562e-06
-0.000162646
5.94397e-06
-0.000137247
5.93589e-06
-0.000141267
5.32856e-06
-0.000154032
6.6091e-06
-0.000149942
5.65984e-06
-0.000146062
5.42019e-06
-0.000138662
5.0406e-06
-0.000155314
5.01095e-06
-0.000147043
4.80792e-06
-0.000126417
4.24388e-06
-0.000115876
3.6625e-06
-0.000137381
3.36404e-06
-0.000158526
4.94735e-06
-0.000129389
4.97915e-06
-0.000128193
5.25794e-06
-0.000137794
9.01466e-06
-0.000147092
8.5446e-06
-0.000166128
1.05357e-05
-0.000158311
9.39903e-06
-0.000165626
8.10041e-06
-0.000154347
9.35439e-06
-0.000153683
5.93018e-06
-0.000185902
7.90742e-06
-0.000154312
6.30279e-06
-0.000132096
7.16781e-06
-0.000125188
5.50941e-06
-0.000143355
5.37288e-06
-0.000178041
6.26026e-06
-0.000165451
7.04542e-06
-0.000163925
7.09856e-06
-0.000144218
7.0945e-06
-0.000139192
6.21511e-06
-0.000162672
6.95201e-06
-0.000135212
7.72281e-06
-0.000110845
7.07953e-06
-0.000107537
6.70122e-06
-0.000118834
7.08049e-06
-0.000122611
7.00056e-06
-0.000123906
6.2946e-06
-0.000118221
6.64289e-06
-0.000108357
7.39741e-06
-0.000120283
7.96109e-06
-0.000139185
1.04413e-05
1.15557e-05
1.48266e-14
-3.9441e-11
-1.16469e-12
-6.95616e-11
-1.0742e-12
-2.03974e-10
-4.28429e-12
-1.60331e-10
-1.88527e-11
-2.60542e-10
-2.72652e-11
-6.74549e-10
-2.90078e-11
-6.93163e-10
-3.89842e-11
-6.51147e-10
-4.67192e-11
-9.06745e-10
-7.35897e-11
-7.73631e-10
-3.86574e-10
-9.72573e-10
-5.0108e-11
-1.81187e-09
-1.68849e-10
-9.21899e-10
-4.67525e-11
-1.21933e-09
-4.19094e-09
-8.73222e-10
-1.2397e-06
-1.90907e-09
-2.2234e-05
9.54056e-09
-6.05021e-05
6.65927e-07
-8.93472e-05
3.40226e-06
-9.87217e-05
7.57504e-06
-0.000109524
6.84045e-06
-0.000123308
2.7729e-06
-0.000133558
2.24455e-07
-0.000130703
5.19212e-07
-0.000138974
4.99065e-07
-0.000131206
1.11031e-06
-0.000119186
1.86413e-06
-0.000131795
3.07431e-06
-0.000143196
3.45446e-06
-0.000147637
4.77941e-06
-0.000139716
4.91736e-06
-0.000132678
4.71555e-06
-0.000136619
5.23272e-06
-0.0001267
5.60102e-06
-0.000112891
4.63605e-06
-0.000115702
4.9974e-06
-0.000130801
5.22008e-06
-0.000138143
5.5522e-06
-0.000138411
5.60025e-06
-0.00012827
5.48281e-06
-0.000111743
5.00533e-06
-0.000125606
5.00259e-06
-0.000128981
5.74902e-06
-0.000109976
4.85728e-06
-0.000129478
4.62996e-06
-0.000136571
6.69481e-06
-0.000140571
5.11512e-06
-0.000157956
7.07683e-06
-0.000133933
5.9343e-06
-0.000118937
5.50549e-06
-0.000111535
5.52579e-06
-0.000125016
5.27967e-06
-0.00015026
5.2899e-06
-0.000142351
6.18566e-06
-0.000150706
6.37215e-06
-0.000150921
6.02492e-06
-0.000132235
5.4351e-06
-0.000139379
6.0095e-06
-0.00015153
5.82617e-06
-0.000151735
5.6415e-06
-0.000132949
5.18947e-06
-0.000126793
4.88648e-06
-0.000130085
5.024e-06
-0.000121421
5.71739e-06
-0.000118961
4.33676e-06
-0.000116661
4.92765e-06
-0.00011213
3.84884e-06
-0.000128562
4.15381e-06
-0.000150335
4.51257e-06
-0.000128944
4.42451e-06
-0.000131631
4.10908e-06
-0.000152541
9.59801e-06
-0.000172341
1.0177e-05
-0.000180235
1.03136e-05
-0.000163488
1.01388e-05
-0.000174799
7.33657e-06
-0.000154204
9.15987e-06
-0.000149041
6.07585e-06
-0.000143404
6.4745e-06
-0.00015036
6.5747e-06
-0.0001445
7.0142e-06
-0.000116834
6.55434e-06
-0.000118354
6.95667e-06
-0.000128266
5.6497e-06
-0.000143741
5.92574e-06
-0.000138488
6.02472e-06
-0.000127485
5.81796e-06
-0.000123179
6.34266e-06
-0.000127969
6.15063e-06
-0.000140153
6.62083e-06
-0.000138612
8.55006e-06
-0.000136939
7.841e-06
-0.000127824
6.88671e-06
-0.000111789
6.71284e-06
-0.000103136
6.57994e-06
-0.000111161
7.05927e-06
-0.000123097
8.36294e-06
-0.000134771
8.58911e-06
-0.000148215
9.38024e-06
8.8235e-06
-9.43244e-08
-4.39388e-08
-2.22069e-07
-5.29655e-08
-1.59316e-07
-4.82263e-08
-2.47347e-07
-4.9722e-08
-6.5955e-07
-4.31578e-08
-7.4251e-07
-3.61423e-08
-5.42922e-07
-5.30184e-08
-8.22576e-07
-4.2181e-08
-7.82429e-07
-3.40234e-08
-8.91687e-07
-3.84131e-08
-1.51529e-06
-3.44551e-08
-8.25475e-07
-3.66483e-08
-9.81018e-07
-4.04931e-08
-8.06497e-07
-3.91616e-08
-1.69198e-06
-3.06428e-08
-1.09032e-06
-4.54746e-08
-6.42308e-07
-6.66995e-08
-1.27859e-06
-7.71742e-08
-7.19554e-06
-1.37804e-07
-4.24313e-05
-1.3537e-07
-8.29802e-05
1.61473e-07
-9.9778e-05
1.46882e-06
-0.000128598
3.25606e-06
-0.000125922
3.60441e-06
-0.000107471
4.01093e-06
-0.000106073
3.19304e-06
-0.000122854
3.39341e-06
-0.000126152
4.48569e-06
-0.000133882
3.79731e-06
-0.000149873
4.35221e-06
-0.000134617
4.44554e-06
-0.000135101
5.36521e-06
-0.000143002
6.26654e-06
-0.000125886
6.09165e-06
-0.000120321
4.9709e-06
-0.000126421
5.3045e-06
-0.000120737
6.12121e-06
-0.000120909
5.57068e-06
-0.000118314
5.59702e-06
-0.000113305
5.61563e-06
-0.000118595
5.35313e-06
-0.000121498
5.10261e-06
-0.000116234
5.88484e-06
-0.000111421
6.02405e-06
-0.000127889
4.74263e-06
-0.000138186
6.29868e-06
-0.000142121
5.13806e-06
-0.00015047
6.6373e-06
-0.000138784
5.36964e-06
-0.000146688
6.10465e-06
-0.000151069
5.64621e-06
-0.000126035
6.46941e-06
-0.000123225
5.27421e-06
-0.000156005
5.66754e-06
-0.000143503
6.66626e-06
-0.000123586
5.03773e-06
-0.000139973
5.39178e-06
-0.000143895
6.64564e-06
-0.000126878
6.43746e-06
-0.00011595
5.46297e-06
-0.000116059
4.62751e-06
-0.000121468
5.63677e-06
-0.000144623
5.15678e-06
-0.000141048
6.63871e-06
-0.000134209
5.19143e-06
-0.000131215
6.10945e-06
-0.000125374
4.14649e-06
-0.000135049
5.06536e-06
-0.000125777
4.09861e-06
-0.000126016
3.93287e-06
-0.000133452
5.09056e-06
-0.000148161
7.03253e-06
-0.000165749
1.13408e-05
-0.000180527
9.02205e-06
-0.000158024
1.04594e-05
-0.00015712
7.96743e-06
-0.000158034
7.04281e-06
-0.00013176
6.01078e-06
-0.00014722
5.70451e-06
-0.000149281
8.067e-06
-0.000148172
5.67122e-06
-0.000173859
7.65349e-06
-0.000144462
6.2451e-06
-0.000118542
6.20675e-06
-0.000115081
6.88216e-06
-0.00011177
5.68515e-06
-0.000115666
6.63123e-06
-0.000117019
7.09375e-06
-0.000113424
7.2855e-06
-0.000132589
7.51617e-06
-0.000149926
9.33449e-06
-0.000122737
7.06108e-06
-0.000110566
6.30374e-06
-0.000111467
7.94974e-06
-0.000114752
6.60557e-06
-0.000121039
7.80339e-06
-0.000121628
8.68044e-06
-0.000119083
9.64845e-06
-0.000113459
9.78211e-06
9.18953e-06
-4.2808e-05
6.17058e-08
-4.40641e-05
2.75669e-07
-4.32392e-05
5.23979e-07
-4.06642e-05
5.56628e-07
-3.45489e-05
4.2711e-07
-3.75154e-05
4.39175e-07
-4.1187e-05
3.92514e-07
-3.25781e-05
3.08354e-07
-3.0708e-05
2.43565e-07
-3.16369e-05
1.94067e-07
-3.14229e-05
1.76811e-07
-3.47461e-05
1.77537e-07
-3.62383e-05
1.29778e-07
-3.2278e-05
1.27252e-07
-4.09007e-05
6.86511e-08
-6.9599e-05
1.9092e-07
-8.63191e-05
7.12442e-07
-0.000119564
1.61969e-06
-0.000138886
3.01425e-06
-0.000147944
2.75821e-06
-0.000138961
3.12153e-06
-0.000137657
3.70237e-06
-0.000131959
4.91827e-06
-0.000142979
4.17511e-06
-0.0001423
5.09998e-06
-0.00012638
3.48695e-06
-0.000144395
3.75792e-06
-0.000140606
4.87886e-06
-0.000116208
4.17436e-06
-0.000109399
4.54662e-06
-0.000128451
4.30907e-06
-0.000164864
5.64026e-06
-0.000165205
6.61214e-06
-0.00013939
5.17831e-06
-0.00012338
5.66629e-06
-0.000139784
5.03367e-06
-0.00015193
5.25379e-06
-0.000136457
5.06815e-06
-0.00014014
4.85687e-06
-0.00014023
6.55866e-06
-0.000121175
5.24647e-06
-0.000130096
5.44851e-06
-0.000166797
6.33395e-06
-0.000136962
7.17426e-06
-0.000124287
4.91072e-06
-0.000127355
5.09089e-06
-0.000130555
5.71528e-06
-0.000130679
6.33954e-06
-0.000130777
4.57122e-06
-0.000130896
5.98189e-06
-0.000134261
5.73522e-06
-0.000149301
6.35549e-06
-0.000134465
5.13112e-06
-0.000134553
5.57881e-06
-0.000128234
5.87409e-06
-0.000122477
5.46774e-06
-0.000141907
5.17787e-06
-0.000168636
5.85814e-06
-0.000158843
6.17241e-06
-0.000125694
5.86425e-06
-0.000131921
4.59456e-06
-0.000146352
5.33325e-06
-0.000146517
4.93388e-06
-0.000159682
5.66734e-06
-0.000164799
6.28099e-06
-0.00013972
5.45201e-06
-0.000133128
5.06445e-06
-0.000133314
4.52602e-06
-0.000116142
3.79763e-06
-0.00011764
2.54004e-06
-0.000145074
6.40421e-07
-0.000192712
7.31008e-06
-0.000172853
1.33423e-05
-0.000164973
1.04503e-05
-0.000180939
9.08191e-06
-0.000151205
9.32854e-06
-0.000133185
6.68891e-06
-0.000131455
6.4635e-06
-0.000154248
5.84437e-06
-0.000152143
8.01665e-06
-0.000147445
5.80583e-06
-0.000141874
6.37809e-06
-0.000131238
5.1893e-06
-0.000159458
6.77056e-06
-0.000141407
6.58825e-06
-0.00013365
6.33985e-06
-0.000150283
7.18104e-06
-0.00015285
7.04765e-06
-0.000160171
8.76693e-06
-0.000168115
6.78785e-06
-0.000139201
9.52342e-06
-0.000113494
6.90701e-06
-0.000129515
7.48635e-06
-0.000126864
7.54258e-06
-0.000116275
6.64133e-06
-0.000132747
7.36481e-06
-0.000145966
7.46903e-06
-0.000152093
9.85116e-06
-0.000138765
8.66617e-06
8.97157e-06
-0.000100513
-7.56794e-08
-0.000117332
6.99765e-07
-0.000142006
1.18506e-06
-0.000111566
1.37861e-06
-0.000104855
1.21866e-06
-0.000111933
1.1676e-06
-0.000106758
1.20278e-06
-0.000107104
1.31453e-06
-0.000107494
1.21456e-06
-0.000115399
1.43884e-06
-0.000139651
1.45666e-06
-0.000149799
1.62617e-06
-0.000162378
1.83512e-06
-0.000143552
1.91404e-06
-0.000134222
1.97304e-06
-0.000168024
1.97371e-06
-0.000181333
2.31216e-06
-0.000184713
2.60068e-06
-0.000161833
2.98454e-06
-0.000135755
2.2286e-06
-0.00013404
2.15953e-06
-0.000154121
3.05686e-06
-0.000169351
2.74252e-06
-0.000183592
2.42575e-06
-0.000171409
1.57965e-06
-0.000153655
1.42081e-06
-0.000179641
1.66337e-06
-0.000184162
1.8956e-06
-0.000183705
2.02732e-06
-0.000178053
3.08513e-06
-0.000167986
2.68751e-06
-0.000188854
3.18976e-06
-0.000163309
3.24621e-06
-0.00015883
3.58041e-06
-0.000167588
3.06072e-06
-0.000136977
2.98641e-06
-0.000128058
3.06706e-06
-0.000127894
3.56086e-06
-0.000153849
3.0963e-06
-0.000166513
3.33881e-06
-0.00016169
3.00973e-06
-0.000181051
3.76079e-06
-0.000186394
3.25039e-06
-0.000170209
3.86975e-06
-0.000138323
3.01869e-06
-0.000156243
3.78292e-06
-0.000191327
3.4306e-06
-0.000148115
4.14248e-06
-0.00014081
3.75264e-06
-0.000178985
3.29452e-06
-0.000184365
4.14589e-06
-0.000147302
3.29266e-06
-0.00014346
3.33568e-06
-0.00016318
3.81277e-06
-0.000167596
3.3854e-06
-0.000154174
3.47053e-06
-0.000142685
4.16991e-06
-0.000146071
3.63521e-06
-0.000153569
3.77209e-06
-0.000142213
4.38232e-06
-0.000126628
3.12999e-06
-0.000126543
4.0851e-06
-0.000135301
3.50899e-06
-0.000161566
4.37465e-06
-0.000157255
4.02591e-06
-0.000157277
3.71161e-06
-0.000149384
4.68921e-06
-0.000132543
3.58112e-06
-0.000129838
3.5065e-06
-0.000146409
2.33355e-06
-0.000152701
7.15047e-07
-0.000134183
7.41065e-07
-0.000153842
1.16835e-05
-0.000166495
1.05875e-05
-0.000186954
7.26697e-06
-0.00019276
5.11677e-06
-0.000168447
3.74825e-06
-0.000153226
4.79333e-06
-0.000163517
4.70445e-06
-0.000165524
4.70315e-06
-0.000140225
4.04239e-06
-0.000126758
4.91938e-06
-0.000134077
3.91028e-06
-0.000135325
4.74589e-06
-0.000130918
4.88079e-06
-0.000138798
5.31826e-06
-0.000133617
5.04702e-06
-0.000150325
5.52695e-06
-0.00013631
5.24911e-06
-0.00013489
4.60574e-06
-0.000143509
6.7182e-06
-0.0001309
6.90511e-06
-0.000122102
6.35441e-06
-0.000107157
5.56853e-06
-0.000107528
6.7884e-06
-0.000105217
6.02577e-06
-0.000115972
5.90822e-06
-0.000119093
9.22364e-06
-0.000111091
8.6226e-06
8.87995e-06
-0.000338722
-0.000313845
-0.000299065
-0.000317308
-0.00030159
-0.000302082
-0.000337827
-0.000328035
-0.000327833
-0.000336923
-0.000317841
-0.000336116
-0.000335697
-0.000335363
-0.000307721
-0.000264242
-0.000257343
-0.000274711
-0.000260034
-0.000231275
-0.000275101
-0.000309934
-0.000290578
-0.000253469
-0.000225354
-0.000239031
-0.000243142
-0.000231472
-0.000259469
-0.000272209
-0.000257807
-0.000257005
-0.000284407
-0.000261881
-0.000216285
-0.000235386
-0.000279916
-0.000278857
-0.000232362
-0.000216148
-0.000235542
-0.000234538
-0.000233268
-0.000226867
-0.00024864
-0.000254252
-0.000240062
-0.000298625
-0.000250403
-0.000230631
-0.000224136
-0.000212642
-0.000238635
-0.000220447
-0.000200082
-0.000240639
-0.000260041
-0.000231858
-0.000256745
-0.000223523
-0.00022749
-0.000252291
-0.000250468
-0.000249246
-0.000222206
-0.000253337
-0.000267968
-0.000258582
-0.000250439
-0.000258271
-0.000270076
-0.000279695
-0.000282368
-0.00026963
-0.000249805
-0.000204092
-0.00020866
-0.000237103
-0.000220049
-0.000190835
-0.000201262
-0.00019226
-0.000171746
-0.000188996
-0.000194576
-0.000180727
-0.000181075
-0.000168073
-0.000146247
-0.000159586
-0.00019261
-0.000176321
-0.00014236
-0.000147817
-0.000142007
-0.000118023
-0.000133142
-0.000154798
-0.000133306
)
;

boundaryField
{
    inlet
    {
        type            fixedValue;
        value           nonuniform List<scalar> 10(-5e-05 -5e-05 -5e-05 -5e-05 -5e-05 -5e-05 -5e-05 -5e-05 -5e-05 -5e-05);
    }
    outlet
    {
        type            calculated;
        value           nonuniform List<scalar> 10(0 0 0 -5.52095e-149 -8.44647e-54 9.45505e-19 3.29858e-08 3.59923e-05 0.000108431 0.000326414);
    }
    walls
    {
        type            fixedValue;
        value           uniform 0;
    }
}


// ************************************************************************* //
