/*--------------------------------*- C++ -*----------------------------------*\
| =========                 |                                                 |
| \\      /  F ield         | foam-extend: Open Source CFD                    |
|  \\    /   O peration     | Version:     5.0                                |
|   \\  /    A nd           | Web:         http://www.foam-extend.org         |
|    \\/     M anipulation  |                                                 |
\*---------------------------------------------------------------------------*/
FoamFile
{
    version     2.0;
    format      ascii;
    class       volScalarField;
    location    "6000";
    object      S.gas;
}
// * * * * * * * * * * * * * * * * * * * * * * * * * * * * * * * * * * * * * //

dimensions      [0 0 0 0 0 0 0];

internalField   nonuniform List<scalar> 
1000
(
0
0
0
0
0
0
0
0
0
0
0
0
0
0
1.14493e-236
2.30318e-136
1.37395e-99
6.59368e-58
3.74446e-44
3.41926e-32
3.93291e-22
1.38215e-19
7.56156e-18
7.98637e-17
5.3548e-16
7.35177e-14
2.97555e-12
2.50205e-11
8.09296e-11
5.52686e-10
5.1892e-10
1.72167e-09
3.57126e-09
1.80839e-07
6.17317e-06
2.62553e-05
6.72929e-05
0.000116774
0.000257193
0.000277262
0.000289319
0.000431136
0.000433607
0.000700799
0.000609079
0.00074107
0.00156717
0.00888909
0.0331542
0.0537496
0.0599833
0.0632835
0.0649659
0.0662992
0.0675562
0.0688497
0.0701367
0.0715023
0.0728591
0.0742695
0.0757171
0.0771942
0.0786864
0.0801658
0.0817125
0.0833052
0.084913
0.0866182
0.08805
0.081725
0.0710701
0.0717517
0.0760059
0.0792851
0.082559
0.0855601
0.0884464
0.0912508
0.0940999
0.0969066
0.100108
0.103315
0.10667
0.110196
0.113706
0.117467
0.121744
0.125891
0.130884
0.13606
0.141739
0.147104
0.153336
0.16051
0.167779
0.175564
0.184732
0.195296
0.207864
0.220314
0
0
0
0
0
0
0
0
0
0
0
1.87937e-302
0
1.02706e-152
8.92786e-79
2.06556e-47
2.15801e-35
1.03348e-21
3.26767e-17
3.20783e-13
7.48457e-10
9.7131e-09
5.6565e-08
1.62603e-07
4.56145e-07
6.0008e-06
3.37725e-05
8.82972e-05
0.000134597
0.00025969
0.000227586
0.000446556
0.000766095
0.00892462
0.0372031
0.0626428
0.0769363
0.0814482
0.0846776
0.0870822
0.0893492
0.0917205
0.0940613
0.0964583
0.0988762
0.101209
0.103485
0.105438
0.10709
0.108905
0.11058
0.112116
0.113546
0.115006
0.116404
0.117831
0.119267
0.120738
0.12223
0.123693
0.125151
0.126614
0.128076
0.129493
0.130836
0.132063
0.133221
0.133952
0.134105
0.131846
0.118617
0.10907
0.113671
0.120354
0.125082
0.128613
0.131597
0.134424
0.137625
0.140507
0.144013
0.146878
0.14994
0.153569
0.156588
0.159702
0.163701
0.167341
0.171112
0.174785
0.179284
0.18406
0.189353
0.193975
0.198401
0.203551
0.209557
0.215415
0.221446
0.22755
1.09e-217
9.76054e-179
3.30197e-155
5.30023e-151
1.68611e-142
1.47142e-130
1.3006e-123
2.25007e-122
2.49303e-120
1.60656e-116
8.99589e-114
1.74514e-103
0
6.27599e-52
3.57915e-28
3.2655e-18
2.39585e-14
1.1606e-09
1.82121e-07
2.08943e-05
0.000702155
0.0020028
0.00324529
0.00455793
0.0110191
0.043496
0.0818327
0.0974265
0.105589
0.109123
0.112031
0.114707
0.117055
0.119284
0.121374
0.123867
0.126216
0.128126
0.129866
0.131503
0.133093
0.134654
0.136177
0.137657
0.139064
0.140381
0.141596
0.142661
0.143592
0.144548
0.145579
0.146632
0.147689
0.148714
0.149707
0.150671
0.151626
0.152617
0.153597
0.154555
0.155445
0.156339
0.157206
0.157999
0.158742
0.15935
0.159818
0.16014
0.160122
0.159621
0.157088
0.140162
0.13138
0.134318
0.139697
0.143921
0.147847
0.151162
0.153457
0.156208
0.159107
0.162106
0.165091
0.167503
0.170512
0.173284
0.175947
0.178981
0.182377
0.18556
0.18936
0.19207
0.195134
0.198612
0.20211
0.205652
0.209657
0.215314
0.219713
0.22618
4.69341e-75
3.88365e-62
1.93678e-54
4.94874e-53
3.94396e-50
3.4451e-46
6.59023e-44
1.5719e-43
7.41134e-43
1.32739e-41
1.25623e-40
3.25509e-37
0
1.19384e-19
6.47198e-12
6.04898e-08
4.90825e-06
0.000997191
0.0111567
0.045366
0.0849644
0.121031
0.133385
0.140853
0.143598
0.143748
0.144847
0.14648
0.1479
0.148954
0.14981
0.150662
0.151518
0.152229
0.153056
0.153954
0.154918
0.155868
0.156825
0.157763
0.158634
0.159493
0.160348
0.161139
0.161882
0.162615
0.163254
0.163874
0.16444
0.165004
0.165552
0.166162
0.166721
0.16728
0.167805
0.168313
0.16884
0.169318
0.169818
0.170274
0.17071
0.171117
0.171459
0.171808
0.172106
0.172323
0.172505
0.172535
0.172524
0.172381
0.170733
0.15501
0.140905
0.142312
0.145958
0.150872
0.153989
0.157543
0.159776
0.162031
0.164314
0.166207
0.168583
0.171045
0.173438
0.175742
0.178556
0.181247
0.184304
0.187378
0.190362
0.192739
0.195071
0.199048
0.203054
0.206662
0.2116
0.215434
0.220494
0.226145
1.26566e-27
2.05587e-23
6.63297e-21
1.81763e-20
1.525e-19
3.02344e-18
1.7118e-17
2.27923e-17
3.57248e-17
9.30818e-17
1.72981e-16
2.6114e-15
6.80074e-16
1.30755e-08
8.69022e-05
0.00675533
0.0430646
0.0936784
0.132748
0.150199
0.157065
0.161419
0.164097
0.165858
0.166942
0.167194
0.167369
0.167543
0.167739
0.167983
0.168254
0.168422
0.168723
0.168983
0.169285
0.169593
0.170041
0.170496
0.17094
0.171397
0.171803
0.172218
0.172594
0.172945
0.1733
0.173638
0.173949
0.17424
0.174503
0.174782
0.175068
0.175327
0.175596
0.17584
0.176099
0.176343
0.176568
0.176801
0.177025
0.177219
0.177424
0.177607
0.17779
0.177954
0.178115
0.178273
0.178416
0.17855
0.178678
0.178812
0.178249
0.163869
0.145651
0.146941
0.151589
0.154959
0.158368
0.160501
0.163398
0.165195
0.167043
0.169382
0.171838
0.174423
0.176296
0.17808
0.180243
0.182092
0.184856
0.186951
0.189084
0.19216
0.195808
0.199674
0.203135
0.207303
0.211276
0.216718
0.22297
0.229282
7.07816e-12
1.28512e-10
8.58133e-10
1.20404e-09
3.3071e-09
1.31439e-08
2.62491e-08
3.12155e-08
4.05336e-08
5.45293e-08
8.16415e-08
2.62509e-07
9.63454e-08
1.52343e-07
7.73349e-08
2.81867e-06
0.000592106
0.0104851
0.0409304
0.0841909
0.121235
0.145366
0.157131
0.163787
0.168009
0.171238
0.172888
0.174394
0.175207
0.175695
0.176034
0.1763
0.176523
0.17671
0.17689
0.177051
0.177213
0.177386
0.177573
0.177752
0.17793
0.178087
0.178229
0.178388
0.178518
0.178634
0.178768
0.178873
0.178994
0.179102
0.179196
0.179279
0.179355
0.179443
0.17953
0.179602
0.179682
0.179743
0.179797
0.179849
0.179898
0.179938
0.17996
0.179983
0.180001
0.180017
0.180044
0.180088
0.180164
0.180258
0.179718
0.164923
0.146916
0.147718
0.151078
0.15469
0.15747
0.159569
0.162306
0.164201
0.166726
0.168314
0.170851
0.173383
0.175836
0.178031
0.180081
0.18256
0.185185
0.18807
0.190741
0.193449
0.196466
0.199492
0.203252
0.207821
0.213234
0.218219
0.224052
0.229614
3.01531e-05
8.15453e-05
0.000187133
0.000196125
0.00027887
0.000515727
0.00067129
0.000630599
0.000785713
0.000867533
0.00104107
0.0013855
0.00103382
0.00111879
0.00102373
0.00156095
0.00123544
0.00090803
0.00138798
0.0055568
0.0285869
0.0688262
0.107773
0.137302
0.149871
0.162144
0.170573
0.174959
0.176864
0.178408
0.179074
0.179602
0.179994
0.180231
0.180401
0.180537
0.180625
0.180692
0.180743
0.180784
0.180812
0.180833
0.180854
0.180868
0.180874
0.180872
0.180886
0.180885
0.180895
0.180894
0.18089
0.180888
0.180883
0.18086
0.180845
0.180836
0.180806
0.180773
0.180745
0.180704
0.180651
0.180586
0.18052
0.180449
0.180398
0.180326
0.180276
0.180226
0.180205
0.180209
0.179988
0.169924
0.147492
0.145993
0.150149
0.152944
0.156773
0.158749
0.1615
0.163986
0.165799
0.167993
0.169758
0.171279
0.173665
0.176091
0.178716
0.181465
0.184099
0.187002
0.190083
0.192335
0.195006
0.198705
0.202598
0.206922
0.211275
0.215841
0.221058
0.227307
0.0380992
0.0406245
0.0420252
0.043407
0.0443866
0.0448746
0.0445883
0.0440839
0.0429385
0.0410473
0.0393215
0.0374148
0.0359084
0.0349565
0.0353204
0.0411805
0.056647
0.0799109
0.107698
0.123733
0.136153
0.145601
0.156143
0.164363
0.171725
0.175721
0.179582
0.181905
0.183061
0.184155
0.184919
0.185316
0.185409
0.185422
0.185407
0.185367
0.185295
0.185213
0.18512
0.18502
0.184921
0.184815
0.184699
0.184598
0.184501
0.184386
0.184282
0.184173
0.184076
0.183973
0.183882
0.183788
0.183705
0.183622
0.183539
0.183458
0.183371
0.183284
0.183199
0.183115
0.183019
0.182905
0.182805
0.182694
0.182592
0.182489
0.182389
0.182261
0.182141
0.181981
0.181273
0.167221
0.14866
0.147622
0.152242
0.15556
0.158369
0.161673
0.164468
0.167142
0.168805
0.171314
0.173066
0.1757
0.177896
0.179809
0.18257
0.184862
0.187235
0.189584
0.191889
0.194109
0.197567
0.201554
0.204624
0.209389
0.213864
0.218429
0.223035
0.228486
0.15316
0.14459
0.138915
0.137326
0.136575
0.136565
0.138082
0.140566
0.143882
0.147677
0.151844
0.155617
0.158776
0.162199
0.164998
0.168995
0.172488
0.176285
0.181238
0.186003
0.191837
0.197778
0.203276
0.207215
0.210588
0.212401
0.214215
0.214941
0.214881
0.214672
0.214194
0.213661
0.21304
0.21241
0.211781
0.211164
0.210554
0.209948
0.209356
0.208772
0.208207
0.207638
0.207075
0.206513
0.205954
0.20539
0.204828
0.204273
0.203722
0.203173
0.202634
0.2021
0.201573
0.201056
0.200542
0.200034
0.199529
0.199033
0.198541
0.198053
0.197566
0.197091
0.196622
0.196158
0.195693
0.195222
0.194761
0.194287
0.193815
0.193301
0.192627
0.187764
0.163907
0.15527
0.159504
0.1636
0.165902
0.168283
0.170425
0.172582
0.17398
0.175784
0.177732
0.179917
0.181536
0.183638
0.185483
0.187369
0.189472
0.19088
0.193622
0.195231
0.197899
0.200257
0.203695
0.207584
0.211751
0.216883
0.221107
0.227869
0.358112
0.353394
0.348459
0.344403
0.341599
0.339844
0.339098
0.339005
0.339083
0.339555
0.339745
0.339952
0.339913
0.33953
0.33906
0.33841
0.337953
0.337899
0.338863
0.340515
0.343931
0.348479
0.351648
0.355594
0.358929
0.363389
0.366739
0.368339
0.368962
0.368693
0.367062
0.365369
0.363277
0.361089
0.358845
0.356624
0.354406
0.352248
0.350139
0.348059
0.346008
0.343971
0.341919
0.339879
0.337807
0.335745
0.333629
0.331538
0.329412
0.327271
0.325163
0.32303
0.320928
0.318806
0.316674
0.31456
0.312432
0.310241
0.308054
0.30583
0.303561
0.301269
0.298921
0.296534
0.294109
0.291635
0.289118
0.286538
0.283837
0.280897
0.277415
0.272377
0.254252
0.228429
0.224655
0.228712
0.232757
0.236642
0.23811
0.239158
0.240087
0.241264
0.24133
0.242317
0.24267
0.2427
0.24263
0.242774
0.242357
0.242591
0.24292
0.242262
0.241086
0.240726
0.240812
0.239727
0.239731
0.240205
0.238165
0.236558
)
;

boundaryField
{
    inlet
    {
        type            calculated;
        value           uniform 0.5;
    }
    outlet
    {
        type            calculated;
        value           nonuniform List<scalar> 10(0 0 1.09e-217 4.69341e-75 1.26566e-27 7.07816e-12 3.01531e-05 0.0380992 0.15316 0.358112);
    }
    walls
    {
        type            calculated;
        value           nonuniform List<scalar> 
2200
(
0
0
0
0
0
0
0
0
0
0
0
0
0
0
1.14493e-236
2.30318e-136
1.37395e-99
6.59368e-58
3.74446e-44
3.41926e-32
3.93291e-22
1.38215e-19
7.56156e-18
7.98637e-17
5.3548e-16
7.35177e-14
2.97555e-12
2.50205e-11
8.09296e-11
5.52686e-10
5.1892e-10
1.72167e-09
3.57126e-09
1.80839e-07
6.17317e-06
2.62553e-05
6.72929e-05
0.000116774
0.000257193
0.000277262
0.000289319
0.000431136
0.000433607
0.000700799
0.000609079
0.00074107
0.00156717
0.00888909
0.0331542
0.0537496
0.0599833
0.0632835
0.0649659
0.0662992
0.0675562
0.0688497
0.0701367
0.0715023
0.0728591
0.0742695
0.0757171
0.0771942
0.0786864
0.0801658
0.0817125
0.0833052
0.084913
0.0866182
0.08805
0.081725
0.0710701
0.0717517
0.0760059
0.0792851
0.082559
0.0855601
0.0884464
0.0912508
0.0940999
0.0969066
0.100108
0.103315
0.10667
0.110196
0.113706
0.117467
0.121744
0.125891
0.130884
0.13606
0.141739
0.147104
0.153336
0.16051
0.167779
0.175564
0.184732
0.195296
0.207864
0.220314
0
0
0
0
0
0
0
0
0
0
0
1.87937e-302
0
1.02706e-152
8.92786e-79
2.06556e-47
2.15801e-35
1.03348e-21
3.26767e-17
3.20783e-13
7.48457e-10
9.7131e-09
5.6565e-08
1.62603e-07
4.56145e-07
6.0008e-06
3.37725e-05
8.82972e-05
0.000134597
0.00025969
0.000227586
0.000446556
0.000766095
0.00892462
0.0372031
0.0626428
0.0769363
0.0814482
0.0846776
0.0870822
0.0893492
0.0917205
0.0940613
0.0964583
0.0988762
0.101209
0.103485
0.105438
0.10709
0.108905
0.11058
0.112116
0.113546
0.115006
0.116404
0.117831
0.119267
0.120738
0.12223
0.123693
0.125151
0.126614
0.128076
0.129493
0.130836
0.132063
0.133221
0.133952
0.134105
0.131846
0.118617
0.10907
0.113671
0.120354
0.125082
0.128613
0.131597
0.134424
0.137625
0.140507
0.144013
0.146878
0.14994
0.153569
0.156588
0.159702
0.163701
0.167341
0.171112
0.174785
0.179284
0.18406
0.189353
0.193975
0.198401
0.203551
0.209557
0.215415
0.221446
0.22755
1.09e-217
9.76054e-179
3.30197e-155
5.30023e-151
1.68611e-142
1.47142e-130
1.3006e-123
2.25007e-122
2.49303e-120
1.60656e-116
8.99589e-114
1.74514e-103
0
6.27599e-52
3.57915e-28
3.2655e-18
2.39585e-14
1.1606e-09
1.82121e-07
2.08943e-05
0.000702155
0.0020028
0.00324529
0.00455793
0.0110191
0.043496
0.0818327
0.0974265
0.105589
0.109123
0.112031
0.114707
0.117055
0.119284
0.121374
0.123867
0.126216
0.128126
0.129866
0.131503
0.133093
0.134654
0.136177
0.137657
0.139064
0.140381
0.141596
0.142661
0.143592
0.144548
0.145579
0.146632
0.147689
0.148714
0.149707
0.150671
0.151626
0.152617
0.153597
0.154555
0.155445
0.156339
0.157206
0.157999
0.158742
0.15935
0.159818
0.16014
0.160122
0.159621
0.157088
0.140162
0.13138
0.134318
0.139697
0.143921
0.147847
0.151162
0.153457
0.156208
0.159107
0.162106
0.165091
0.167503
0.170512
0.173284
0.175947
0.178981
0.182377
0.18556
0.18936
0.19207
0.195134
0.198612
0.20211
0.205652
0.209657
0.215314
0.219713
0.22618
4.69341e-75
3.88365e-62
1.93678e-54
4.94874e-53
3.94396e-50
3.4451e-46
6.59023e-44
1.5719e-43
7.41134e-43
1.32739e-41
1.25623e-40
3.25509e-37
0
1.19384e-19
6.47198e-12
6.04898e-08
4.90825e-06
0.000997191
0.0111567
0.045366
0.0849644
0.121031
0.133385
0.140853
0.143598
0.143748
0.144847
0.14648
0.1479
0.148954
0.14981
0.150662
0.151518
0.152229
0.153056
0.153954
0.154918
0.155868
0.156825
0.157763
0.158634
0.159493
0.160348
0.161139
0.161882
0.162615
0.163254
0.163874
0.16444
0.165004
0.165552
0.166162
0.166721
0.16728
0.167805
0.168313
0.16884
0.169318
0.169818
0.170274
0.17071
0.171117
0.171459
0.171808
0.172106
0.172323
0.172505
0.172535
0.172524
0.172381
0.170733
0.15501
0.140905
0.142312
0.145958
0.150872
0.153989
0.157543
0.159776
0.162031
0.164314
0.166207
0.168583
0.171045
0.173438
0.175742
0.178556
0.181247
0.184304
0.187378
0.190362
0.192739
0.195071
0.199048
0.203054
0.206662
0.2116
0.215434
0.220494
0.226145
1.26566e-27
2.05587e-23
6.63297e-21
1.81763e-20
1.525e-19
3.02344e-18
1.7118e-17
2.27923e-17
3.57248e-17
9.30818e-17
1.72981e-16
2.6114e-15
6.80074e-16
1.30755e-08
8.69022e-05
0.00675533
0.0430646
0.0936784
0.132748
0.150199
0.157065
0.161419
0.164097
0.165858
0.166942
0.167194
0.167369
0.167543
0.167739
0.167983
0.168254
0.168422
0.168723
0.168983
0.169285
0.169593
0.170041
0.170496
0.17094
0.171397
0.171803
0.172218
0.172594
0.172945
0.1733
0.173638
0.173949
0.17424
0.174503
0.174782
0.175068
0.175327
0.175596
0.17584
0.176099
0.176343
0.176568
0.176801
0.177025
0.177219
0.177424
0.177607
0.17779
0.177954
0.178115
0.178273
0.178416
0.17855
0.178678
0.178812
0.178249
0.163869
0.145651
0.146941
0.151589
0.154959
0.158368
0.160501
0.163398
0.165195
0.167043
0.169382
0.171838
0.174423
0.176296
0.17808
0.180243
0.182092
0.184856
0.186951
0.189084
0.19216
0.195808
0.199674
0.203135
0.207303
0.211276
0.216718
0.22297
0.229282
7.07816e-12
1.28512e-10
8.58133e-10
1.20404e-09
3.3071e-09
1.31439e-08
2.62491e-08
3.12155e-08
4.05336e-08
5.45293e-08
8.16415e-08
2.62509e-07
9.63454e-08
1.52343e-07
7.73349e-08
2.81867e-06
0.000592106
0.0104851
0.0409304
0.0841909
0.121235
0.145366
0.157131
0.163787
0.168009
0.171238
0.172888
0.174394
0.175207
0.175695
0.176034
0.1763
0.176523
0.17671
0.17689
0.177051
0.177213
0.177386
0.177573
0.177752
0.17793
0.178087
0.178229
0.178388
0.178518
0.178634
0.178768
0.178873
0.178994
0.179102
0.179196
0.179279
0.179355
0.179443
0.17953
0.179602
0.179682
0.179743
0.179797
0.179849
0.179898
0.179938
0.17996
0.179983
0.180001
0.180017
0.180044
0.180088
0.180164
0.180258
0.179718
0.164923
0.146916
0.147718
0.151078
0.15469
0.15747
0.159569
0.162306
0.164201
0.166726
0.168314
0.170851
0.173383
0.175836
0.178031
0.180081
0.18256
0.185185
0.18807
0.190741
0.193449
0.196466
0.199492
0.203252
0.207821
0.213234
0.218219
0.224052
0.229614
3.01531e-05
8.15453e-05
0.000187133
0.000196125
0.00027887
0.000515727
0.00067129
0.000630599
0.000785713
0.000867533
0.00104107
0.0013855
0.00103382
0.00111879
0.00102373
0.00156095
0.00123544
0.00090803
0.00138798
0.0055568
0.0285869
0.0688262
0.107773
0.137302
0.149871
0.162144
0.170573
0.174959
0.176864
0.178408
0.179074
0.179602
0.179994
0.180231
0.180401
0.180537
0.180625
0.180692
0.180743
0.180784
0.180812
0.180833
0.180854
0.180868
0.180874
0.180872
0.180886
0.180885
0.180895
0.180894
0.18089
0.180888
0.180883
0.18086
0.180845
0.180836
0.180806
0.180773
0.180745
0.180704
0.180651
0.180586
0.18052
0.180449
0.180398
0.180326
0.180276
0.180226
0.180205
0.180209
0.179988
0.169924
0.147492
0.145993
0.150149
0.152944
0.156773
0.158749
0.1615
0.163986
0.165799
0.167993
0.169758
0.171279
0.173665
0.176091
0.178716
0.181465
0.184099
0.187002
0.190083
0.192335
0.195006
0.198705
0.202598
0.206922
0.211275
0.215841
0.221058
0.227307
0.0380992
0.0406245
0.0420252
0.043407
0.0443866
0.0448746
0.0445883
0.0440839
0.0429385
0.0410473
0.0393215
0.0374148
0.0359084
0.0349565
0.0353204
0.0411805
0.056647
0.0799109
0.107698
0.123733
0.136153
0.145601
0.156143
0.164363
0.171725
0.175721
0.179582
0.181905
0.183061
0.184155
0.184919
0.185316
0.185409
0.185422
0.185407
0.185367
0.185295
0.185213
0.18512
0.18502
0.184921
0.184815
0.184699
0.184598
0.184501
0.184386
0.184282
0.184173
0.184076
0.183973
0.183882
0.183788
0.183705
0.183622
0.183539
0.183458
0.183371
0.183284
0.183199
0.183115
0.183019
0.182905
0.182805
0.182694
0.182592
0.182489
0.182389
0.182261
0.182141
0.181981
0.181273
0.167221
0.14866
0.147622
0.152242
0.15556
0.158369
0.161673
0.164468
0.167142
0.168805
0.171314
0.173066
0.1757
0.177896
0.179809
0.18257
0.184862
0.187235
0.189584
0.191889
0.194109
0.197567
0.201554
0.204624
0.209389
0.213864
0.218429
0.223035
0.228486
0.15316
0.14459
0.138915
0.137326
0.136575
0.136565
0.138082
0.140566
0.143882
0.147677
0.151844
0.155617
0.158776
0.162199
0.164998
0.168995
0.172488
0.176285
0.181238
0.186003
0.191837
0.197778
0.203276
0.207215
0.210588
0.212401
0.214215
0.214941
0.214881
0.214672
0.214194
0.213661
0.21304
0.21241
0.211781
0.211164
0.210554
0.209948
0.209356
0.208772
0.208207
0.207638
0.207075
0.206513
0.205954
0.20539
0.204828
0.204273
0.203722
0.203173
0.202634
0.2021
0.201573
0.201056
0.200542
0.200034
0.199529
0.199033
0.198541
0.198053
0.197566
0.197091
0.196622
0.196158
0.195693
0.195222
0.194761
0.194287
0.193815
0.193301
0.192627
0.187764
0.163907
0.15527
0.159504
0.1636
0.165902
0.168283
0.170425
0.172582
0.17398
0.175784
0.177732
0.179917
0.181536
0.183638
0.185483
0.187369
0.189472
0.19088
0.193622
0.195231
0.197899
0.200257
0.203695
0.207584
0.211751
0.216883
0.221107
0.227869
0.358112
0.353394
0.348459
0.344403
0.341599
0.339844
0.339098
0.339005
0.339083
0.339555
0.339745
0.339952
0.339913
0.33953
0.33906
0.33841
0.337953
0.337899
0.338863
0.340515
0.343931
0.348479
0.351648
0.355594
0.358929
0.363389
0.366739
0.368339
0.368962
0.368693
0.367062
0.365369
0.363277
0.361089
0.358845
0.356624
0.354406
0.352248
0.350139
0.348059
0.346008
0.343971
0.341919
0.339879
0.337807
0.335745
0.333629
0.331538
0.329412
0.327271
0.325163
0.32303
0.320928
0.318806
0.316674
0.31456
0.312432
0.310241
0.308054
0.30583
0.303561
0.301269
0.298921
0.296534
0.294109
0.291635
0.289118
0.286538
0.283837
0.280897
0.277415
0.272377
0.254252
0.228429
0.224655
0.228712
0.232757
0.236642
0.23811
0.239158
0.240087
0.241264
0.24133
0.242317
0.24267
0.2427
0.24263
0.242774
0.242357
0.242591
0.24292
0.242262
0.241086
0.240726
0.240812
0.239727
0.239731
0.240205
0.238165
0.236558
0
0
0
0
0
0
0
0
0
0
0
0
0
0
1.14493e-236
2.30318e-136
1.37395e-99
6.59368e-58
3.74446e-44
3.41926e-32
3.93291e-22
1.38215e-19
7.56156e-18
7.98637e-17
5.3548e-16
7.35177e-14
2.97555e-12
2.50205e-11
8.09296e-11
5.52686e-10
5.1892e-10
1.72167e-09
3.57126e-09
1.80839e-07
6.17317e-06
2.62553e-05
6.72929e-05
0.000116774
0.000257193
0.000277262
0.000289319
0.000431136
0.000433607
0.000700799
0.000609079
0.00074107
0.00156717
0.00888909
0.0331542
0.0537496
0.0599833
0.0632835
0.0649659
0.0662992
0.0675562
0.0688497
0.0701367
0.0715023
0.0728591
0.0742695
0.0757171
0.0771942
0.0786864
0.0801658
0.0817125
0.0833052
0.084913
0.0866182
0.08805
0.081725
0.0710701
0.0717517
0.0760059
0.0792851
0.082559
0.0855601
0.0884464
0.0912508
0.0940999
0.0969066
0.100108
0.103315
0.10667
0.110196
0.113706
0.117467
0.121744
0.125891
0.130884
0.13606
0.141739
0.147104
0.153336
0.16051
0.167779
0.175564
0.184732
0.195296
0.207864
0.220314
0
0
0
0
0
0
0
0
0
0
0
1.87937e-302
0
1.02706e-152
8.92786e-79
2.06556e-47
2.15801e-35
1.03348e-21
3.26767e-17
3.20783e-13
7.48457e-10
9.7131e-09
5.6565e-08
1.62603e-07
4.56145e-07
6.0008e-06
3.37725e-05
8.82972e-05
0.000134597
0.00025969
0.000227586
0.000446556
0.000766095
0.00892462
0.0372031
0.0626428
0.0769363
0.0814482
0.0846776
0.0870822
0.0893492
0.0917205
0.0940613
0.0964583
0.0988762
0.101209
0.103485
0.105438
0.10709
0.108905
0.11058
0.112116
0.113546
0.115006
0.116404
0.117831
0.119267
0.120738
0.12223
0.123693
0.125151
0.126614
0.128076
0.129493
0.130836
0.132063
0.133221
0.133952
0.134105
0.131846
0.118617
0.10907
0.113671
0.120354
0.125082
0.128613
0.131597
0.134424
0.137625
0.140507
0.144013
0.146878
0.14994
0.153569
0.156588
0.159702
0.163701
0.167341
0.171112
0.174785
0.179284
0.18406
0.189353
0.193975
0.198401
0.203551
0.209557
0.215415
0.221446
0.22755
1.09e-217
9.76054e-179
3.30197e-155
5.30023e-151
1.68611e-142
1.47142e-130
1.3006e-123
2.25007e-122
2.49303e-120
1.60656e-116
8.99589e-114
1.74514e-103
0
6.27599e-52
3.57915e-28
3.2655e-18
2.39585e-14
1.1606e-09
1.82121e-07
2.08943e-05
0.000702155
0.0020028
0.00324529
0.00455793
0.0110191
0.043496
0.0818327
0.0974265
0.105589
0.109123
0.112031
0.114707
0.117055
0.119284
0.121374
0.123867
0.126216
0.128126
0.129866
0.131503
0.133093
0.134654
0.136177
0.137657
0.139064
0.140381
0.141596
0.142661
0.143592
0.144548
0.145579
0.146632
0.147689
0.148714
0.149707
0.150671
0.151626
0.152617
0.153597
0.154555
0.155445
0.156339
0.157206
0.157999
0.158742
0.15935
0.159818
0.16014
0.160122
0.159621
0.157088
0.140162
0.13138
0.134318
0.139697
0.143921
0.147847
0.151162
0.153457
0.156208
0.159107
0.162106
0.165091
0.167503
0.170512
0.173284
0.175947
0.178981
0.182377
0.18556
0.18936
0.19207
0.195134
0.198612
0.20211
0.205652
0.209657
0.215314
0.219713
0.22618
4.69341e-75
3.88365e-62
1.93678e-54
4.94874e-53
3.94396e-50
3.4451e-46
6.59023e-44
1.5719e-43
7.41134e-43
1.32739e-41
1.25623e-40
3.25509e-37
0
1.19384e-19
6.47198e-12
6.04898e-08
4.90825e-06
0.000997191
0.0111567
0.045366
0.0849644
0.121031
0.133385
0.140853
0.143598
0.143748
0.144847
0.14648
0.1479
0.148954
0.14981
0.150662
0.151518
0.152229
0.153056
0.153954
0.154918
0.155868
0.156825
0.157763
0.158634
0.159493
0.160348
0.161139
0.161882
0.162615
0.163254
0.163874
0.16444
0.165004
0.165552
0.166162
0.166721
0.16728
0.167805
0.168313
0.16884
0.169318
0.169818
0.170274
0.17071
0.171117
0.171459
0.171808
0.172106
0.172323
0.172505
0.172535
0.172524
0.172381
0.170733
0.15501
0.140905
0.142312
0.145958
0.150872
0.153989
0.157543
0.159776
0.162031
0.164314
0.166207
0.168583
0.171045
0.173438
0.175742
0.178556
0.181247
0.184304
0.187378
0.190362
0.192739
0.195071
0.199048
0.203054
0.206662
0.2116
0.215434
0.220494
0.226145
1.26566e-27
2.05587e-23
6.63297e-21
1.81763e-20
1.525e-19
3.02344e-18
1.7118e-17
2.27923e-17
3.57248e-17
9.30818e-17
1.72981e-16
2.6114e-15
6.80074e-16
1.30755e-08
8.69022e-05
0.00675533
0.0430646
0.0936784
0.132748
0.150199
0.157065
0.161419
0.164097
0.165858
0.166942
0.167194
0.167369
0.167543
0.167739
0.167983
0.168254
0.168422
0.168723
0.168983
0.169285
0.169593
0.170041
0.170496
0.17094
0.171397
0.171803
0.172218
0.172594
0.172945
0.1733
0.173638
0.173949
0.17424
0.174503
0.174782
0.175068
0.175327
0.175596
0.17584
0.176099
0.176343
0.176568
0.176801
0.177025
0.177219
0.177424
0.177607
0.17779
0.177954
0.178115
0.178273
0.178416
0.17855
0.178678
0.178812
0.178249
0.163869
0.145651
0.146941
0.151589
0.154959
0.158368
0.160501
0.163398
0.165195
0.167043
0.169382
0.171838
0.174423
0.176296
0.17808
0.180243
0.182092
0.184856
0.186951
0.189084
0.19216
0.195808
0.199674
0.203135
0.207303
0.211276
0.216718
0.22297
0.229282
7.07816e-12
1.28512e-10
8.58133e-10
1.20404e-09
3.3071e-09
1.31439e-08
2.62491e-08
3.12155e-08
4.05336e-08
5.45293e-08
8.16415e-08
2.62509e-07
9.63454e-08
1.52343e-07
7.73349e-08
2.81867e-06
0.000592106
0.0104851
0.0409304
0.0841909
0.121235
0.145366
0.157131
0.163787
0.168009
0.171238
0.172888
0.174394
0.175207
0.175695
0.176034
0.1763
0.176523
0.17671
0.17689
0.177051
0.177213
0.177386
0.177573
0.177752
0.17793
0.178087
0.178229
0.178388
0.178518
0.178634
0.178768
0.178873
0.178994
0.179102
0.179196
0.179279
0.179355
0.179443
0.17953
0.179602
0.179682
0.179743
0.179797
0.179849
0.179898
0.179938
0.17996
0.179983
0.180001
0.180017
0.180044
0.180088
0.180164
0.180258
0.179718
0.164923
0.146916
0.147718
0.151078
0.15469
0.15747
0.159569
0.162306
0.164201
0.166726
0.168314
0.170851
0.173383
0.175836
0.178031
0.180081
0.18256
0.185185
0.18807
0.190741
0.193449
0.196466
0.199492
0.203252
0.207821
0.213234
0.218219
0.224052
0.229614
3.01531e-05
8.15453e-05
0.000187133
0.000196125
0.00027887
0.000515727
0.00067129
0.000630599
0.000785713
0.000867533
0.00104107
0.0013855
0.00103382
0.00111879
0.00102373
0.00156095
0.00123544
0.00090803
0.00138798
0.0055568
0.0285869
0.0688262
0.107773
0.137302
0.149871
0.162144
0.170573
0.174959
0.176864
0.178408
0.179074
0.179602
0.179994
0.180231
0.180401
0.180537
0.180625
0.180692
0.180743
0.180784
0.180812
0.180833
0.180854
0.180868
0.180874
0.180872
0.180886
0.180885
0.180895
0.180894
0.18089
0.180888
0.180883
0.18086
0.180845
0.180836
0.180806
0.180773
0.180745
0.180704
0.180651
0.180586
0.18052
0.180449
0.180398
0.180326
0.180276
0.180226
0.180205
0.180209
0.179988
0.169924
0.147492
0.145993
0.150149
0.152944
0.156773
0.158749
0.1615
0.163986
0.165799
0.167993
0.169758
0.171279
0.173665
0.176091
0.178716
0.181465
0.184099
0.187002
0.190083
0.192335
0.195006
0.198705
0.202598
0.206922
0.211275
0.215841
0.221058
0.227307
0.0380992
0.0406245
0.0420252
0.043407
0.0443866
0.0448746
0.0445883
0.0440839
0.0429385
0.0410473
0.0393215
0.0374148
0.0359084
0.0349565
0.0353204
0.0411805
0.056647
0.0799109
0.107698
0.123733
0.136153
0.145601
0.156143
0.164363
0.171725
0.175721
0.179582
0.181905
0.183061
0.184155
0.184919
0.185316
0.185409
0.185422
0.185407
0.185367
0.185295
0.185213
0.18512
0.18502
0.184921
0.184815
0.184699
0.184598
0.184501
0.184386
0.184282
0.184173
0.184076
0.183973
0.183882
0.183788
0.183705
0.183622
0.183539
0.183458
0.183371
0.183284
0.183199
0.183115
0.183019
0.182905
0.182805
0.182694
0.182592
0.182489
0.182389
0.182261
0.182141
0.181981
0.181273
0.167221
0.14866
0.147622
0.152242
0.15556
0.158369
0.161673
0.164468
0.167142
0.168805
0.171314
0.173066
0.1757
0.177896
0.179809
0.18257
0.184862
0.187235
0.189584
0.191889
0.194109
0.197567
0.201554
0.204624
0.209389
0.213864
0.218429
0.223035
0.228486
0.15316
0.14459
0.138915
0.137326
0.136575
0.136565
0.138082
0.140566
0.143882
0.147677
0.151844
0.155617
0.158776
0.162199
0.164998
0.168995
0.172488
0.176285
0.181238
0.186003
0.191837
0.197778
0.203276
0.207215
0.210588
0.212401
0.214215
0.214941
0.214881
0.214672
0.214194
0.213661
0.21304
0.21241
0.211781
0.211164
0.210554
0.209948
0.209356
0.208772
0.208207
0.207638
0.207075
0.206513
0.205954
0.20539
0.204828
0.204273
0.203722
0.203173
0.202634
0.2021
0.201573
0.201056
0.200542
0.200034
0.199529
0.199033
0.198541
0.198053
0.197566
0.197091
0.196622
0.196158
0.195693
0.195222
0.194761
0.194287
0.193815
0.193301
0.192627
0.187764
0.163907
0.15527
0.159504
0.1636
0.165902
0.168283
0.170425
0.172582
0.17398
0.175784
0.177732
0.179917
0.181536
0.183638
0.185483
0.187369
0.189472
0.19088
0.193622
0.195231
0.197899
0.200257
0.203695
0.207584
0.211751
0.216883
0.221107
0.227869
0.358112
0.353394
0.348459
0.344403
0.341599
0.339844
0.339098
0.339005
0.339083
0.339555
0.339745
0.339952
0.339913
0.33953
0.33906
0.33841
0.337953
0.337899
0.338863
0.340515
0.343931
0.348479
0.351648
0.355594
0.358929
0.363389
0.366739
0.368339
0.368962
0.368693
0.367062
0.365369
0.363277
0.361089
0.358845
0.356624
0.354406
0.352248
0.350139
0.348059
0.346008
0.343971
0.341919
0.339879
0.337807
0.335745
0.333629
0.331538
0.329412
0.327271
0.325163
0.32303
0.320928
0.318806
0.316674
0.31456
0.312432
0.310241
0.308054
0.30583
0.303561
0.301269
0.298921
0.296534
0.294109
0.291635
0.289118
0.286538
0.283837
0.280897
0.277415
0.272377
0.254252
0.228429
0.224655
0.228712
0.232757
0.236642
0.23811
0.239158
0.240087
0.241264
0.24133
0.242317
0.24267
0.2427
0.24263
0.242774
0.242357
0.242591
0.24292
0.242262
0.241086
0.240726
0.240812
0.239727
0.239731
0.240205
0.238165
0.236558
0
0
0
0
0
0
0
0
0
0
0
0
0
0
1.14493e-236
2.30318e-136
1.37395e-99
6.59368e-58
3.74446e-44
3.41926e-32
3.93291e-22
1.38215e-19
7.56156e-18
7.98637e-17
5.3548e-16
7.35177e-14
2.97555e-12
2.50205e-11
8.09296e-11
5.52686e-10
5.1892e-10
1.72167e-09
3.57126e-09
1.80839e-07
6.17317e-06
2.62553e-05
6.72929e-05
0.000116774
0.000257193
0.000277262
0.000289319
0.000431136
0.000433607
0.000700799
0.000609079
0.00074107
0.00156717
0.00888909
0.0331542
0.0537496
0.0599833
0.0632835
0.0649659
0.0662992
0.0675562
0.0688497
0.0701367
0.0715023
0.0728591
0.0742695
0.0757171
0.0771942
0.0786864
0.0801658
0.0817125
0.0833052
0.084913
0.0866182
0.08805
0.081725
0.0710701
0.0717517
0.0760059
0.0792851
0.082559
0.0855601
0.0884464
0.0912508
0.0940999
0.0969066
0.100108
0.103315
0.10667
0.110196
0.113706
0.117467
0.121744
0.125891
0.130884
0.13606
0.141739
0.147104
0.153336
0.16051
0.167779
0.175564
0.184732
0.195296
0.207864
0.220314
0.358112
0.353394
0.348459
0.344403
0.341599
0.339844
0.339098
0.339005
0.339083
0.339555
0.339745
0.339952
0.339913
0.33953
0.33906
0.33841
0.337953
0.337899
0.338863
0.340515