/*--------------------------------*- C++ -*----------------------------------*\
| =========                 |                                                 |
| \\      /  F ield         | foam-extend: Open Source CFD                    |
|  \\    /   O peration     | Version:     5.0                                |
|   \\  /    A nd           | Web:         http://www.foam-extend.org         |
|    \\/     M anipulation  |                                                 |
\*---------------------------------------------------------------------------*/
FoamFile
{
    version     2.0;
    format      ascii;
    class       volScalarField;
    location    "6000";
    object      S.oil;
}
// * * * * * * * * * * * * * * * * * * * * * * * * * * * * * * * * * * * * * //

dimensions      [0 0 0 0 0 0 0];

internalField   nonuniform List<scalar> 
1000
(
1
1
1
1
1
1
1
1
1
1
1
1
1
1
1
1
1
1
1
1
1
1
1
1
1
1
1
1
1
1
1
1
1
1
0.999994
0.999974
0.999933
0.999883
0.999743
0.999723
0.999711
0.999569
0.999566
0.999299
0.999391
0.999259
0.998433
0.991111
0.966846
0.94625
0.940017
0.936717
0.935034
0.933701
0.932444
0.93115
0.929863
0.928498
0.927141
0.925731
0.924283
0.922806
0.921314
0.919834
0.918287
0.916695
0.915087
0.913378
0.907601
0.820798
0.634077
0.526992
0.459986
0.4318
0.408314
0.390513
0.37565
0.363081
0.351364
0.341503
0.329087
0.318232
0.307405
0.296537
0.287404
0.277603
0.265254
0.255682
0.241646
0.22822
0.21331
0.202575
0.188672
0.171765
0.15691
0.141806
0.12248
0.0998598
0.0718452
0.0491382
1
1
1
1
1
1
1
1
1
1
1
1
1
1
1
1
1
1
1
1
1
1
1
1
1
0.999994
0.999966
0.999912
0.999865
0.99974
0.999772
0.999553
0.999234
0.991075
0.962797
0.937357
0.923064
0.918552
0.915322
0.912918
0.910651
0.908279
0.905939
0.903542
0.901124
0.898791
0.896515
0.894562
0.89291
0.891095
0.88942
0.887884
0.886454
0.884994
0.883596
0.882169
0.880733
0.879262
0.87777
0.876307
0.874849
0.873386
0.871924
0.870507
0.869164
0.867937
0.866779
0.866048
0.86587
0.859001
0.762038
0.597383
0.50064
0.442527
0.412779
0.394499
0.381079
0.369444
0.355544
0.344328
0.329367
0.319543
0.30896
0.295208
0.285678
0.276238
0.262128
0.250416
0.238891
0.228564
0.214202
0.198581
0.18064
0.1664
0.153166
0.136463
0.115774
0.0955604
0.0744512
0.0516474
1
1
1
1
1
1
1
1
1
1
1
1
1
1
1
1
1
1
1
0.999979
0.999298
0.997997
0.996755
0.995442
0.988981
0.956504
0.918167
0.902573
0.894411
0.890877
0.887969
0.885293
0.882945
0.880716
0.878626
0.876133
0.873784
0.871874
0.870134
0.868497
0.866907
0.865346
0.863823
0.862343
0.860936
0.859619
0.858404
0.857339
0.856408
0.855452
0.854421
0.853368
0.852311
0.851286
0.850293
0.849329
0.848374
0.847383
0.846403
0.845445
0.844555
0.843661
0.842794
0.842001
0.841258
0.84065
0.840182
0.83986
0.839878
0.840346
0.831307
0.71556
0.572175
0.510187
0.454291
0.424064
0.399403
0.380628
0.370003
0.356733
0.343016
0.328882
0.315025
0.304814
0.291402
0.279482
0.268415
0.25559
0.241066
0.227777
0.211721
0.200969
0.188527
0.173926
0.159346
0.144748
0.128146
0.104601
0.0861775
0.0590587
1
1
1
1
1
1
1
1
1
1
1
1
1
1
1
1
0.999995
0.999003
0.988843
0.954634
0.915036
0.878969
0.866615
0.859147
0.856402
0.856252
0.855153
0.85352
0.8521
0.851046
0.85019
0.849338
0.848482
0.847771
0.846944
0.846046
0.845082
0.844132
0.843175
0.842237
0.841366
0.840507
0.839652
0.838861
0.838118
0.837385
0.836746
0.836126
0.83556
0.834996
0.834448
0.833838
0.833279
0.83272
0.832195
0.831687
0.83116
0.830682
0.830182
0.829726
0.82929
0.828883
0.828541
0.828192
0.827894
0.827677
0.827495
0.827465
0.827476
0.827599
0.820013
0.730514
0.586382
0.496316
0.458087
0.419091
0.398829
0.377128
0.364539
0.35244
0.340441
0.330862
0.318878
0.306733
0.295314
0.284503
0.271181
0.258601
0.244241
0.22996
0.216079
0.204931
0.19417
0.176204
0.158299
0.142241
0.1206
0.103725
0.0820691
0.0584811
1
1
1
1
1
1
1
1
1
1
1
1
1
1
0.999913
0.993245
0.956935
0.906322
0.867252
0.849801
0.842935
0.838581
0.835903
0.834142
0.833058
0.832806
0.832631
0.832457
0.832261
0.832017
0.831746
0.831578
0.831277
0.831017
0.830715
0.830407
0.829959
0.829504
0.82906
0.828603
0.828197
0.827782
0.827406
0.827055
0.8267
0.826362
0.826051
0.82576
0.825497
0.825218
0.824932
0.824673
0.824404
0.82416
0.823901
0.823657
0.823432
0.823199
0.822975
0.822781
0.822576
0.822393
0.82221
0.822046
0.821885
0.821727
0.821584
0.82145
0.821322
0.821183
0.817668
0.742851
0.585203
0.482708
0.436302
0.41093
0.388059
0.374773
0.357242
0.346823
0.336348
0.323491
0.310107
0.296321
0.28645
0.277274
0.266377
0.257128
0.243627
0.233493
0.223464
0.209237
0.192483
0.174833
0.159016
0.140252
0.122647
0.0992222
0.0725695
0.0459455
1
1
1
1
1
1
1
1
1
1
1
1
1
1
1
0.999997
0.999408
0.989515
0.95907
0.915809
0.878765
0.854634
0.842869
0.836213
0.831991
0.828762
0.827112
0.825606
0.824793
0.824305
0.823966
0.8237
0.823477
0.82329
0.82311
0.822949
0.822787
0.822614
0.822427
0.822248
0.82207
0.821913
0.821771
0.821612
0.821482
0.821366
0.821232
0.821127
0.821006
0.820898
0.820804
0.820721
0.820645
0.820557
0.82047
0.820398
0.820318
0.820257
0.820203
0.820151
0.820102
0.820062
0.82004
0.820017
0.819999
0.819983
0.819956
0.819912
0.819836
0.819739
0.816654
0.741049
0.589365
0.482913
0.446762
0.417391
0.397444
0.383704
0.366612
0.35534
0.340935
0.332093
0.318379
0.304892
0.29189
0.280428
0.269921
0.257554
0.244733
0.230843
0.218173
0.205601
0.191638
0.177715
0.160794
0.140535
0.116805
0.094973
0.0695607
0.0452576
0.99997
0.999918
0.999813
0.999804
0.999721
0.999484
0.999329
0.999369
0.999214
0.999132
0.998959
0.998614
0.998966
0.998881
0.998976
0.998439
0.998765
0.999092
0.998612
0.994443
0.971413
0.931174
0.892227
0.862698
0.850129
0.837856
0.829427
0.825041
0.823136
0.821592
0.820926
0.820398
0.820006
0.819769
0.819599
0.819463
0.819375
0.819308
0.819257
0.819216
0.819188
0.819167
0.819146
0.819132
0.819126
0.819128
0.819114
0.819115
0.819105
0.819106
0.81911
0.819112
0.819117
0.81914
0.819155
0.819164
0.819194
0.819227
0.819255
0.819296
0.819349
0.819414
0.81948
0.819551
0.819602
0.819674
0.819724
0.819774
0.819795
0.81979
0.818554
0.76939
0.608661
0.504491
0.450712
0.426757
0.398555
0.384961
0.367518
0.3525
0.341925
0.329443
0.31968
0.311412
0.299006
0.286657
0.273463
0.259965
0.247197
0.233296
0.218652
0.207924
0.195335
0.178376
0.16088
0.141516
0.122411
0.102705
0.0805261
0.0541549
0.961901
0.959375
0.957975
0.956593
0.955613
0.955125
0.955412
0.955916
0.957062
0.958953
0.960679
0.962585
0.964092
0.965044
0.96468
0.95882
0.943353
0.920089
0.892302
0.876267
0.863847
0.854399
0.843857
0.835637
0.828275
0.824279
0.820418
0.818095
0.816939
0.815845
0.815081
0.814684
0.814591
0.814578
0.814593
0.814633
0.814705
0.814787
0.81488
0.81498
0.815079
0.815185
0.815301
0.815402
0.815499
0.815614
0.815718
0.815827
0.815924
0.816027
0.816118
0.816212
0.816295
0.816378
0.816461
0.816542
0.816629
0.816716
0.816801
0.816885
0.816981
0.817095
0.817195
0.817306
0.817408
0.817511
0.817611
0.817739
0.817859
0.818018
0.815911
0.74748
0.602115
0.512452
0.449347
0.421833
0.401794
0.380009
0.362635
0.346653
0.336856
0.322623
0.312724
0.298476
0.286789
0.276681
0.26261
0.250971
0.239089
0.227518
0.216165
0.205533
0.189279
0.170764
0.156294
0.134598
0.11428
0.0937607
0.0734583
0.0496404
0.84684
0.85541
0.861085
0.862674
0.863425
0.863435
0.861918
0.859434
0.856118
0.852323
0.848156
0.844383
0.841224
0.837801
0.835002
0.831005
0.827512
0.823715
0.818762
0.813997
0.808163
0.802222
0.796724
0.792785
0.789412
0.787599
0.785785
0.785059
0.785119
0.785328
0.785806
0.786339
0.78696
0.78759
0.788219
0.788836
0.789446
0.790052
0.790644
0.791228
0.791793
0.792362
0.792925
0.793487
0.794046
0.79461
0.795172
0.795727
0.796278
0.796827
0.797366
0.7979
0.798427
0.798944
0.799458
0.799966
0.800471
0.800967
0.801459
0.801947
0.802434
0.802909
0.803378
0.803842
0.804307
0.804778
0.805239
0.805713
0.806185
0.806699
0.807181
0.791008
0.664862
0.523981
0.45734
0.421287
0.402805
0.385187
0.370116
0.355426
0.345157
0.332977
0.320297
0.306533
0.295824
0.282874
0.271269
0.259506
0.24682
0.237393
0.222016
0.212025
0.197439
0.184251
0.166481
0.147047
0.126498
0.102238
0.082581
0.0527514
0.641888
0.646606
0.651541
0.655597
0.658401
0.660156
0.660902
0.660995
0.660917
0.660445
0.660255
0.660048
0.660087
0.66047
0.66094
0.66159
0.662047
0.662101
0.661137
0.659485
0.656069
0.651521
0.648352
0.644406
0.641071
0.636611
0.633261
0.631661
0.631038
0.631307
0.632938
0.634631
0.636723
0.638911
0.641155
0.643376
0.645594
0.647752
0.649861
0.651941
0.653992
0.656029
0.658081
0.660121
0.662193
0.664255
0.666371
0.668462
0.670588
0.672729
0.674837
0.67697
0.679072
0.681194
0.683326
0.68544
0.687568
0.689759
0.691946
0.69417
0.696439
0.698731
0.701079
0.703466
0.705891
0.708365
0.710882
0.713462
0.716163
0.719103
0.722584
0.726082
0.69129
0.578036
0.482226
0.436373
0.402558
0.373886
0.358903
0.345982
0.333009
0.318999
0.309455
0.296008
0.284572
0.274184
0.263727
0.251835
0.241425
0.227513
0.212635
0.200511
0.189778
0.17474
0.156633
0.141481
0.120026
0.0941351
0.0750664
0.0509804
)
;

boundaryField
{
    inlet
    {
        type            calculated;
        value           uniform 0;
    }
    outlet
    {
        type            calculated;
        value           nonuniform List<scalar> 10(1 1 1 1 1 1 0.99997 0.961901 0.84684 0.641888);
    }
    walls
    {
        type            calculated;
        value           nonuniform List<scalar> 
2200
(
1
1
1
1
1
1
1
1
1
1
1
1
1
1
1
1
1
1
1
1
1
1
1
1
1
1
1
1
1
1
1
1
1
1
0.999994
0.999974
0.999933
0.999883
0.999743
0.999723
0.999711
0.999569
0.999566
0.999299
0.999391
0.999259
0.998433
0.991111
0.966846
0.94625
0.940017
0.936717
0.935034
0.933701
0.932444
0.93115
0.929863
0.928498
0.927141
0.925731
0.924283
0.922806
0.921314
0.919834
0.918287
0.916695
0.915087
0.913378
0.907601
0.820798
0.634077
0.526992
0.459986
0.4318
0.408314
0.390513
0.37565
0.363081
0.351364
0.341503
0.329087
0.318232
0.307405
0.296537
0.287404
0.277603
0.265254
0.255682
0.241646
0.22822
0.21331
0.202575
0.188672
0.171765
0.15691
0.141806
0.12248
0.0998598
0.0718452
0.0491382
1
1
1
1
1
1
1
1
1
1
1
1
1
1
1
1
1
1
1
1
1
1
1
1
1
0.999994
0.999966
0.999912
0.999865
0.99974
0.999772
0.999553
0.999234
0.991075
0.962797
0.937357
0.923064
0.918552
0.915322
0.912918
0.910651
0.908279
0.905939
0.903542
0.901124
0.898791
0.896515
0.894562
0.89291
0.891095
0.88942
0.887884
0.886454
0.884994
0.883596
0.882169
0.880733
0.879262
0.87777
0.876307
0.874849
0.873386
0.871924
0.870507
0.869164
0.867937
0.866779
0.866048
0.86587
0.859001
0.762038
0.597383
0.50064
0.442527
0.412779
0.394499
0.381079
0.369444
0.355544
0.344328
0.329367
0.319543
0.30896
0.295208
0.285678
0.276238
0.262128
0.250416
0.238891
0.228564
0.214202
0.198581
0.18064
0.1664
0.153166
0.136463
0.115774
0.0955604
0.0744512
0.0516474
1
1
1
1
1
1
1
1
1
1
1
1
1
1
1
1
1
1
1
0.999979
0.999298
0.997997
0.996755
0.995442
0.988981
0.956504
0.918167
0.902573
0.894411
0.890877
0.887969
0.885293
0.882945
0.880716
0.878626
0.876133
0.873784
0.871874
0.870134
0.868497
0.866907
0.865346
0.863823
0.862343
0.860936
0.859619
0.858404
0.857339
0.856408
0.855452
0.854421
0.853368
0.852311
0.851286
0.850293
0.849329
0.848374
0.847383
0.846403
0.845445
0.844555
0.843661
0.842794
0.842001
0.841258
0.84065
0.840182
0.83986
0.839878
0.840346
0.831307
0.71556
0.572175
0.510187
0.454291
0.424064
0.399403
0.380628
0.370003
0.356733
0.343016
0.328882
0.315025
0.304814
0.291402
0.279482
0.268415
0.25559
0.241066
0.227777
0.211721
0.200969
0.188527
0.173926
0.159346
0.144748
0.128146
0.104601
0.0861775
0.0590587
1
1
1
1
1
1
1
1
1
1
1
1
1
1
1
1
0.999995
0.999003
0.988843
0.954634
0.915036
0.878969
0.866615
0.859147
0.856402
0.856252
0.855153
0.85352
0.8521
0.851046
0.85019
0.849338
0.848482
0.847771
0.846944
0.846046
0.845082
0.844132
0.843175
0.842237
0.841366
0.840507
0.839652
0.838861
0.838118
0.837385
0.836746
0.836126
0.83556
0.834996
0.834448
0.833838
0.833279
0.83272
0.832195
0.831687
0.83116
0.830682
0.830182
0.829726
0.82929
0.828883
0.828541
0.828192
0.827894
0.827677
0.827495
0.827465
0.827476
0.827599
0.820013
0.730514
0.586382
0.496316
0.458087
0.419091
0.398829
0.377128
0.364539
0.35244
0.340441
0.330862
0.318878
0.306733
0.295314
0.284503
0.271181
0.258601
0.244241
0.22996
0.216079
0.204931
0.19417
0.176204
0.158299
0.142241
0.1206
0.103725
0.0820691
0.0584811
1
1
1
1
1
1
1
1
1
1
1
1
1
1
0.999913
0.993245
0.956935
0.906322
0.867252
0.849801
0.842935
0.838581
0.835903
0.834142
0.833058
0.832806
0.832631
0.832457
0.832261
0.832017
0.831746
0.831578
0.831277
0.831017
0.830715
0.830407
0.829959
0.829504
0.82906
0.828603
0.828197
0.827782
0.827406
0.827055
0.8267
0.826362
0.826051
0.82576
0.825497
0.825218
0.824932
0.824673
0.824404
0.82416
0.823901
0.823657
0.823432
0.823199
0.822975
0.822781
0.822576
0.822393
0.82221
0.822046
0.821885
0.821727
0.821584
0.82145
0.821322
0.821183
0.817668
0.742851
0.585203
0.482708
0.436302
0.41093
0.388059
0.374773
0.357242
0.346823
0.336348
0.323491
0.310107
0.296321
0.28645
0.277274
0.266377
0.257128
0.243627
0.233493
0.223464
0.209237
0.192483
0.174833
0.159016
0.140252
0.122647
0.0992222
0.0725695
0.0459455
1
1
1
1
1
1
1
1
1
1
1
1
1
1
1
0.999997
0.999408
0.989515
0.95907
0.915809
0.878765
0.854634
0.842869
0.836213
0.831991
0.828762
0.827112
0.825606
0.824793
0.824305
0.823966
0.8237
0.823477
0.82329
0.82311
0.822949
0.822787
0.822614
0.822427
0.822248
0.82207
0.821913
0.821771
0.821612
0.821482
0.821366
0.821232
0.821127
0.821006
0.820898
0.820804
0.820721
0.820645
0.820557
0.82047
0.820398
0.820318
0.820257
0.820203
0.820151
0.820102
0.820062
0.82004
0.820017
0.819999
0.819983
0.819956
0.819912
0.819836
0.819739
0.816654
0.741049
0.589365
0.482913
0.446762
0.417391
0.397444
0.383704
0.366612
0.35534
0.340935
0.332093
0.318379
0.304892
0.29189
0.280428
0.269921
0.257554
0.244733
0.230843
0.218173
0.205601
0.191638
0.177715
0.160794
0.140535
0.116805
0.094973
0.0695607
0.0452576
0.99997
0.999918
0.999813
0.999804
0.999721
0.999484
0.999329
0.999369
0.999214
0.999132
0.998959
0.998614
0.998966
0.998881
0.998976
0.998439
0.998765
0.999092
0.998612
0.994443
0.971413
0.931174
0.892227
0.862698
0.850129
0.837856
0.829427
0.825041
0.823136
0.821592
0.820926
0.820398
0.820006
0.819769
0.819599
0.819463
0.819375
0.819308
0.819257
0.819216
0.819188
0.819167
0.819146
0.819132
0.819126
0.819128
0.819114
0.819115
0.819105
0.819106
0.81911
0.819112
0.819117
0.81914
0.819155
0.819164
0.819194
0.819227
0.819255
0.819296
0.819349
0.819414
0.81948
0.819551
0.819602
0.819674
0.819724
0.819774
0.819795
0.81979
0.818554
0.76939
0.608661
0.504491
0.450712
0.426757
0.398555
0.384961
0.367518
0.3525
0.341925
0.329443
0.31968
0.311412
0.299006
0.286657
0.273463
0.259965
0.247197
0.233296
0.218652
0.207924
0.195335
0.178376
0.16088
0.141516
0.122411
0.102705
0.0805261
0.0541549
0.961901
0.959375
0.957975
0.956593
0.955613
0.955125
0.955412
0.955916
0.957062
0.958953
0.960679
0.962585
0.964092
0.965044
0.96468
0.95882
0.943353
0.920089
0.892302
0.876267
0.863847
0.854399
0.843857
0.835637
0.828275
0.824279
0.820418
0.818095
0.816939
0.815845
0.815081
0.814684
0.814591
0.814578
0.814593
0.814633
0.814705
0.814787
0.81488
0.81498
0.815079
0.815185
0.815301
0.815402
0.815499
0.815614
0.815718
0.815827
0.815924
0.816027
0.816118
0.816212
0.816295
0.816378
0.816461
0.816542
0.816629
0.816716
0.816801
0.816885
0.816981
0.817095
0.817195
0.817306
0.817408
0.817511
0.817611
0.817739
0.817859
0.818018
0.815911
0.74748
0.602115
0.512452
0.449347
0.421833
0.401794
0.380009
0.362635
0.346653
0.336856
0.322623
0.312724
0.298476
0.286789
0.276681
0.26261
0.250971
0.239089
0.227518
0.216165
0.205533
0.189279
0.170764
0.156294
0.134598
0.11428
0.0937607
0.0734583
0.0496404
0.84684
0.85541
0.861085
0.862674
0.863425
0.863435
0.861918
0.859434
0.856118
0.852323
0.848156
0.844383
0.841224
0.837801
0.835002
0.831005
0.827512
0.823715
0.818762
0.813997
0.808163
0.802222
0.796724
0.792785
0.789412
0.787599
0.785785
0.785059
0.785119
0.785328
0.785806
0.786339
0.78696
0.78759
0.788219
0.788836
0.789446
0.790052
0.790644
0.791228
0.791793
0.792362
0.792925
0.793487
0.794046
0.79461
0.795172
0.795727
0.796278
0.796827
0.797366
0.7979
0.798427
0.798944
0.799458
0.799966
0.800471
0.800967
0.801459
0.801947
0.802434
0.802909
0.803378
0.803842
0.804307
0.804778
0.805239
0.805713
0.806185
0.806699
0.807181
0.791008
0.664862
0.523981
0.45734
0.421287
0.402805
0.385187
0.370116
0.355426
0.345157
0.332977
0.320297
0.306533
0.295824
0.282874
0.271269
0.259506
0.24682
0.237393
0.222016
0.212025
0.197439
0.184251
0.166481
0.147047
0.126498
0.102238
0.082581
0.0527514
0.641888
0.646606
0.651541
0.655597
0.658401
0.660156
0.660902
0.660995
0.660917
0.660445
0.660255
0.660048
0.660087
0.66047
0.66094
0.66159
0.662047
0.662101
0.661137
0.659485
0.656069
0.651521
0.648352
0.644406
0.641071
0.636611
0.633261
0.631661
0.631038
0.631307
0.632938
0.634631
0.636723
0.638911
0.641155
0.643376
0.645594
0.647752
0.649861
0.651941
0.653992
0.656029
0.658081
0.660121
0.662193
0.664255
0.666371
0.668462
0.670588
0.672729
0.674837
0.67697
0.679072
0.681194
0.683326
0.68544
0.687568
0.689759
0.691946
0.69417
0.696439
0.698731
0.701079
0.703466
0.705891
0.708365
0.710882
0.713462
0.716163
0.719103
0.722584
0.726082
0.69129
0.578036
0.482226
0.436373
0.402558
0.373886
0.358903
0.345982
0.333009
0.318999
0.309455
0.296008
0.284572
0.274184
0.263727
0.251835
0.241425
0.227513
0.212635
0.200511
0.189778
0.17474
0.156633
0.141481
0.120026
0.0941351
0.0750664
0.0509804
1
1
1
1
1
1
1
1
1
1
1
1
1
1
1
1
1
1
1
1
1
1
1
1
1
1
1
1
1
1
1
1
1
1
0.999994
0.999974
0.999933
0.999883
0.999743
0.999723
0.999711
0.999569
0.999566
0.999299
0.999391
0.999259
0.998433
0.991111
0.966846
0.94625
0.940017
0.936717
0.935034
0.933701
0.932444
0.93115
0.929863
0.928498
0.927141
0.925731
0.924283
0.922806
0.921314
0.919834
0.918287
0.916695
0.915087
0.913378
0.907601
0.820798
0.634077
0.526992
0.459986
0.4318
0.408314
0.390513
0.37565
0.363081
0.351364
0.341503
0.329087
0.318232
0.307405
0.296537
0.287404
0.277603
0.265254
0.255682
0.241646
0.22822
0.21331
0.202575
0.188672
0.171765
0.15691
0.141806
0.12248
0.0998598
0.0718452
0.0491382
1
1
1
1
1
1
1
1
1
1
1
1
1
1
1
1
1
1
1
1
1
1
1
1
1
0.999994
0.999966
0.999912
0.999865
0.99974
0.999772
0.999553
0.999234
0.991075
0.962797
0.937357
0.923064
0.918552
0.915322
0.912918
0.910651
0.908279
0.905939
0.903542
0.901124
0.898791
0.896515
0.894562
0.89291
0.891095
0.88942
0.887884
0.886454
0.884994
0.883596
0.882169
0.880733
0.879262
0.87777
0.876307
0.874849
0.873386
0.871924
0.870507
0.869164
0.867937
0.866779
0.866048
0.86587
0.859001
0.762038
0.597383
0.50064
0.442527
0.412779
0.394499
0.381079
0.369444
0.355544
0.344328
0.329367
0.319543
0.30896
0.295208
0.285678
0.276238
0.262128
0.250416
0.238891
0.228564
0.214202
0.198581
0.18064
0.1664
0.153166
0.136463
0.115774
0.0955604
0.0744512
0.0516474
1
1
1
1
1
1
1
1
1
1
1
1
1
1
1
1
1
1
1
0.999979
0.999298
0.997997
0.996755
0.995442
0.988981
0.956504
0.918167
0.902573
0.894411
0.890877
0.887969
0.885293
0.882945
0.880716
0.878626
0.876133
0.873784
0.871874
0.870134
0.868497
0.866907
0.865346
0.863823
0.862343
0.860936
0.859619
0.858404
0.857339
0.856408
0.855452
0.854421
0.853368
0.852311
0.851286
0.850293
0.849329
0.848374
0.847383
0.846403
0.845445
0.844555
0.843661
0.842794
0.842001
0.841258
0.84065
0.840182
0.83986
0.839878
0.840346
0.831307
0.71556
0.572175
0.510187
0.454291
0.424064
0.399403
0.380628
0.370003
0.356733
0.343016
0.328882
0.315025
0.304814
0.291402
0.279482
0.268415
0.25559
0.241066
0.227777
0.211721
0.200969
0.188527
0.173926
0.159346
0.144748
0.128146
0.104601
0.0861775
0.0590587
1
1
1
1
1
1
1
1
1
1
1
1
1
1
1
1
0.999995
0.999003
0.988843
0.954634
0.915036
0.878969
0.866615
0.859147
0.856402
0.856252
0.855153
0.85352
0.8521
0.851046
0.85019
0.849338
0.848482
0.847771
0.846944
0.846046
0.845082
0.844132
0.843175
0.842237
0.841366
0.840507
0.839652
0.838861
0.838118
0.837385
0.836746
0.836126
0.83556
0.834996
0.834448
0.833838
0.833279
0.83272
0.832195
0.831687
0.83116
0.830682
0.830182
0.829726
0.82929
0.828883
0.828541
0.828192
0.827894
0.827677
0.827495
0.827465
0.827476
0.827599
0.820013
0.730514
0.586382
0.496316
0.458087
0.419091
0.398829
0.377128
0.364539
0.35244
0.340441
0.330862
0.318878
0.306733
0.295314
0.284503
0.271181
0.258601
0.244241
0.22996
0.216079
0.204931
0.19417
0.176204
0.158299
0.142241
0.1206
0.103725
0.0820691
0.0584811
1
1
1
1
1
1
1
1
1
1
1
1
1
1
0.999913
0.993245
0.956935
0.906322
0.867252
0.849801
0.842935
0.838581
0.835903
0.834142
0.833058
0.832806
0.832631
0.832457
0.832261
0.832017
0.831746
0.831578
0.831277
0.831017
0.830715
0.830407
0.829959
0.829504
0.82906
0.828603
0.828197
0.827782
0.827406
0.827055
0.8267
0.826362
0.826051
0.82576
0.825497
0.825218
0.824932
0.824673
0.824404
0.82416
0.823901
0.823657
0.823432
0.823199
0.822975
0.822781
0.822576
0.822393
0.82221
0.822046
0.821885
0.821727
0.821584
0.82145
0.821322
0.821183
0.817668
0.742851
0.585203
0.482708
0.436302
0.41093
0.388059
0.374773
0.357242
0.346823
0.336348
0.323491
0.310107
0.296321
0.28645
0.277274
0.266377
0.257128
0.243627
0.233493
0.223464
0.209237
0.192483
0.174833
0.159016
0.140252
0.122647
0.0992222
0.0725695
0.0459455
1
1
1
1
1
1
1
1
1
1
1
1
1
1
1
0.999997
0.999408
0.989515
0.95907
0.915809
0.878765
0.854634
0.842869
0.836213
0.831991
0.828762
0.827112
0.825606
0.824793
0.824305
0.823966
0.8237
0.823477
0.82329
0.82311
0.822949
0.822787
0.822614
0.822427
0.822248
0.82207
0.821913
0.821771
0.821612
0.821482
0.821366
0.821232
0.821127
0.821006
0.820898
0.820804
0.820721
0.820645
0.820557
0.82047
0.820398
0.820318
0.820257
0.820203
0.820151
0.820102
0.820062
0.82004
0.820017
0.819999
0.819983
0.819956
0.819912
0.819836
0.819739
0.816654
0.741049
0.589365
0.482913
0.446762
0.417391
0.397444
0.383704
0.366612
0.35534
0.340935
0.332093
0.318379
0.304892
0.29189
0.280428
0.269921
0.257554
0.244733
0.230843
0.218173
0.205601
0.191638
0.177715
0.160794
0.140535
0.116805
0.094973
0.0695607
0.0452576
0.99997
0.999918
0.999813
0.999804
0.999721
0.999484
0.999329
0.999369
0.999214
0.999132
0.998959
0.998614
0.998966
0.998881
0.998976
0.998439
0.998765
0.999092
0.998612
0.994443
0.971413
0.931174
0.892227
0.862698
0.850129
0.837856
0.829427
0.825041
0.823136
0.821592
0.820926
0.820398
0.820006
0.819769
0.819599
0.819463
0.819375
0.819308
0.819257
0.819216
0.819188
0.819167
0.819146
0.819132
0.819126
0.819128
0.819114
0.819115
0.819105
0.819106
0.81911
0.819112
0.819117
0.81914
0.819155
0.819164
0.819194
0.819227
0.819255
0.819296
0.819349
0.819414
0.81948
0.819551
0.819602
0.819674
0.819724
0.819774
0.819795
0.81979
0.818554
0.76939
0.608661
0.504491
0.450712
0.426757
0.398555
0.384961
0.367518
0.3525
0.341925
0.329443
0.31968
0.311412
0.299006
0.286657
0.273463
0.259965
0.247197
0.233296
0.218652
0.207924
0.195335
0.178376
0.16088
0.141516
0.122411
0.102705
0.0805261
0.0541549
0.961901
0.959375
0.957975
0.956593
0.955613
0.955125
0.955412
0.955916
0.957062
0.958953
0.960679
0.962585
0.964092
0.965044
0.96468
0.95882
0.943353
0.920089
0.892302
0.876267
0.863847
0.854399
0.843857
0.835637
0.828275
0.824279
0.820418
0.818095
0.816939
0.815845
0.815081
0.814684
0.814591
0.814578
0.814593
0.814633
0.814705
0.814787
0.81488
0.81498
0.815079
0.815185
0.815301
0.815402
0.815499
0.815614
0.815718
0.815827
0.815924
0.816027
0.816118
0.816212
0.816295
0.816378
0.816461
0.816542
0.816629
0.816716
0.816801
0.816885
0.816981
0.817095
0.817195
0.817306
0.817408
0.817511
0.817611
0.817739
0.817859
0.818018
0.815911
0.74748
0.602115
0.512452
0.449347
0.421833
0.401794
0.380009
0.362635
0.346653
0.336856
0.322623
0.312724
0.298476
0.286789
0.276681
0.26261
0.250971
0.239089
0.227518
0.216165
0.205533
0.189279
0.170764
0.156294
0.134598
0.11428
0.0937607
0.0734583
0.0496404
0.84684
0.85541
0.861085
0.862674
0.863425
0.863435
0.861918
0.859434
0.856118
0.852323
0.848156
0.844383
0.841224
0.837801
0.835002
0.831005
0.827512
0.823715
0.818762
0.813997
0.808163
0.802222
0.796724
0.792785
0.789412
0.787599
0.785785
0.785059
0.785119
0.785328
0.785806
0.786339
0.78696
0.78759
0.788219
0.788836
0.789446
0.790052
0.790644
0.791228
0.791793
0.792362
0.792925
0.793487
0.794046
0.79461
0.795172
0.795727
0.796278
0.796827
0.797366
0.7979
0.798427
0.798944
0.799458
0.799966
0.800471
0.800967
0.801459
0.801947
0.802434
0.802909
0.803378
0.803842
0.804307
0.804778
0.805239
0.805713
0.806185
0.806699
0.807181
0.791008
0.664862
0.523981
0.45734
0.421287
0.402805
0.385187
0.370116
0.355426
0.345157
0.332977
0.320297
0.306533
0.295824
0.282874
0.271269
0.259506
0.24682
0.237393
0.222016
0.212025
0.197439
0.184251
0.166481
0.147047
0.126498
0.102238
0.082581
0.0527514
0.641888
0.646606
0.651541
0.655597
0.658401
0.660156
0.660902
0.660995
0.660917
0.660445
0.660255
0.660048
0.660087
0.66047
0.66094
0.66159
0.662047
0.662101
0.661137
0.659485
0.656069
0.651521
0.648352
0.644406
0.641071
0.636611
0.633261
0.631661
0.631038
0.631307
0.632938
0.634631
0.636723
0.638911
0.641155
0.643376
0.645594
0.647752
0.649861
0.651941
0.653992
0.656029
0.658081
0.660121
0.662193
0.664255
0.666371
0.668462
0.670588
0.672729
0.674837
0.67697
0.679072
0.681194
0.683326
0.68544
0.687568
0.689759
0.691946
0.69417
0.696439
0.698731
0.701079
0.703466
0.705891
0.708365
0.710882
0.713462
0.716163
0.719103
0.722584
0.726082
0.69129
0.578036
0.482226
0.436373
0.402558
0.373886
0.358903
0.345982
0.333009
0.318999
0.309455
0.296008
0.284572
0.274184
0.263727
0.251835
0.241425
0.227513
0.212635
0.200511
0.189778
0.17474
0.156633
0.141481
0.120026
0.0941351
0.0750664
0.0509804
1
1
1
1
1
1
1
1
1
1
1
1
1
1
1
1
1
1
1
1
1
1
1
1
1
1
1
1
1
1
1
1
1
1
0.999994
0.999974
0.999933
0.999883
0.999743
0.999723
0.999711
0.999569
0.999566
0.999299
0.999391
0.999259
0.998433
0.991111
0.966846
0.94625
0.940017
0.936717
0.935034
0.933701
0.932444
0.93115
0.929863
0.928498
0.927141
0.925731
0.924283
0.922806
0.921314
0.919834
0.918287
0.916695
0.915087
0.913378
0.907601
0.820798
0.634077
0.526992
0.459986
0.4318
0.408314
0.390513
0.37565
0.363081
0.351364
0.341503
0.329087
0.318232
0.307405
0.296537
0.287404
0.277603
0.265254
0.255682
0.241646
0.22822
0.21331
0.202575
0.188672
0.171765
0.15691
0.141806
0.12248
0.0998598
0.0718452
0.0491382
0.641888
0.646606
0.651541
0.655597
0.658401
0.660156
0.660902
0.660995
0.660917
0.660445
0.660255
0.660048
0.660087
0.66047
0.66094
0.66159
0.662047
0.662101
0.661137
0.659485
0.656069
0.651521
0.648352
0.644406
0.641071
0.636611
0.633261
0.631661
0.631038
0.631307
0.632938
0.634631
0.636723
0.638911
0.641155
0.643376
0.645594
0.647752
0.649861
0.651941
0.653992
0.656029
0.658081
0.660121
0.662193
0.664255
0.666371
0.668462
0.670588
0.672729
0.674837
0.67697
0.679072
0.681194
0.683326
0.68544
0.687568
0.689759
0.691946
0.69417
0.696439
0.698731
0.701079
0.703466
0.705891
0.708365
0.710882
0.713462
0.716163
0.719103
0.722584
0.726082
0.69129
0.578036
0.482226
0.436373
0.402558
0.373886
0.358903
0.345982
0.333009
0.318999
0.309455
0.296008
0.284572
0.274184
0.263727
0.251835
0.241425
0.227513
0.212635
0.200511
0.189778
0.17474
0.156633
0.141481
0.120026
0.0941351
0.0750664
0.0509804
)
;
    }
}


// ************************************************************************* //
