/*--------------------------------*- C++ -*----------------------------------*\
| =========                 |                                                 |
| \\      /  F ield         | foam-extend: Open Source CFD                    |
|  \\    /   O peration     | Version:     5.0                                |
|   \\  /    A nd           | Web:         http://www.foam-extend.org         |
|    \\/     M anipulation  |                                                 |
\*---------------------------------------------------------------------------*/
FoamFile
{
    version     2.0;
    format      ascii;
    class       volVectorField;
    location    "6000";
    object      U.gas;
}
// * * * * * * * * * * * * * * * * * * * * * * * * * * * * * * * * * * * * * //

dimensions      [0 1 -1 0 0 0 0];

internalField   nonuniform List<vector> 
1000
(
(0 0 0)
(0 0 0)
(0 0 0)
(0 0 0)
(0 0 0)
(0 0 0)
(0 0 0)
(0 0 0)
(0 0 0)
(0 0 0)
(0 0 0)
(0 0 0)
(0 0 0)
(0 0 0)
(0 1.6373e-272 -8.6905e-230)
(0 3.27904e-196 -1.14013e-129)
(0 5.64349e-111 -7.70825e-93)
(0 1.09566e-81 -5.22223e-51)
(0 1.00668e-58 -2.45007e-37)
(0 9.01543e-37 -2.59485e-25)
(0 1.42986e-31 -2.74348e-15)
(0 4.3528e-28 -4.6282e-13)
(0 4.84858e-26 -1.56945e-11)
(0 2.14547e-24 -1.29677e-10)
(0 3.91937e-20 -1.02029e-09)
(0 6.40953e-17 -1.76641e-07)
(0 4.11739e-15 -5.59463e-06)
(0 3.45497e-14 -3.82414e-05)
(0 -1.41656e-12 -8.88611e-05)
(0 -2.52295e-12 -0.000330788)
(0 -2.23031e-11 -0.000254057)
(0 -2.9698e-11 -0.000258237)
(0 -3.45932e-08 -0.000424257)
(0 -8.00666e-07 -0.00113703)
(0 -4.99933e-07 -0.000646901)
(0 -6.50209e-07 -0.000333223)
(0 -8.08977e-07 -0.000179762)
(0 -2.13665e-06 -0.000121134)
(0 -2.5005e-06 -8.54135e-05)
(0 -2.08434e-06 -6.70317e-05)
(0 -2.79639e-06 -5.63543e-05)
(0 -3.12423e-06 -4.77846e-05)
(0 -4.70445e-06 -4.16433e-05)
(0 -5.21615e-06 -3.8175e-05)
(0 -4.73109e-06 -3.41485e-05)
(0 -1.32553e-05 -3.07175e-05)
(0 -0.00025048 -2.20711e-05)
(0 -0.000486649 -1.99777e-06)
(0 -0.000401703 3.65917e-06)
(0 -0.000520614 9.66464e-06)
(0 -0.000441853 9.0896e-06)
(0 -0.000475671 1.01501e-05)
(0 -0.000441488 9.47583e-06)
(0 -0.000495217 1.06366e-05)
(0 -0.000594269 1.27342e-05)
(0 -0.000490478 1.04836e-05)
(0 -0.0007006 1.491e-05)
(0 -0.000535797 1.13625e-05)
(0 -0.000642971 1.35817e-05)
(0 -0.000696847 1.46504e-05)
(0 -0.000710701 1.48438e-05)
(0 -0.000644018 1.33363e-05)
(0 -0.000491979 1.00743e-05)
(0 -0.000632942 1.27349e-05)
(0 -0.000679911 1.32766e-05)
(0 -0.000540386 9.92267e-06)
(0 -0.000699008 1.10968e-05)
(0 -0.000601169 5.67394e-06)
(0 -0.000684083 -8.28083e-06)
(0 -0.000695533 1.44275e-05)
(0 -0.000836246 4.68032e-05)
(0 -0.000726116 3.17178e-05)
(0 -0.000978979 2.84964e-05)
(0 -0.000842645 1.99818e-05)
(0 -0.000853708 1.8289e-05)
(0 -0.000863662 1.75724e-05)
(0 -0.000921513 1.82147e-05)
(0 -0.000931538 1.8065e-05)
(0 -0.00105899 2.06784e-05)
(0 -0.000816588 1.60661e-05)
(0 -0.000911494 1.87179e-05)
(0 -0.000922044 1.90279e-05)
(0 -0.000932212 1.91205e-05)
(0 -0.00111904 2.3757e-05)
(0 -0.00106726 2.33614e-05)
(0 -0.000875427 1.93757e-05)
(0 -0.00116139 2.63962e-05)
(0 -0.000820365 1.9951e-05)
(0 -0.000909809 2.29255e-05)
(0 -0.000880069 2.20742e-05)
(0 -0.00130429 3.2273e-05)
(0 -0.00104502 2.69365e-05)
(0 -0.000915157 2.55786e-05)
(0 -0.0011324 3.23612e-05)
(0 -0.00121636 3.50304e-05)
(0 -0.00104943 3.16275e-05)
(0 -0.00101268 3.29246e-05)
(0 -0.000979295 3.40756e-05)
(0 -0.00144699 4.93737e-05)
(0 -0.00129053 4.41447e-05)
(0 0 0)
(0 0 0)
(0 0 0)
(0 0 0)
(0 0 0)
(0 0 0)
(0 0 0)
(0 0 0)
(0 0 0)
(0 0 0)
(0 0 0)
(0 0 -6.2374e-296)
(0 7.41098e-313 0)
(0 9.72538e-158 -5.7621e-146)
(0 4.06198e-89 -5.00878e-72)
(0 4.01067e-64 -1.567e-40)
(0 4.22314e-36 -1.05837e-28)
(0 6.53118e-27 -6.48879e-15)
(0 6.00378e-19 -1.62211e-10)
(0 -4.42227e-12 -2.1418e-06)
(0 -5.46024e-10 -0.00179503)
(0 -1.23162e-09 -0.000964585)
(0 -2.32131e-09 -0.000537218)
(0 -5.66237e-09 -0.000329831)
(0 -3.09901e-07 -0.000687185)
(0 -7.19483e-07 -0.00077321)
(0 -9.16712e-07 -0.000463135)
(0 -1.17901e-06 -0.000292926)
(0 -2.17781e-06 -0.000193459)
(0 -2.19781e-06 -0.000149897)
(0 -3.43415e-06 -0.000117581)
(0 -7.85327e-06 -9.02525e-05)
(0 -0.00041674 -4.86315e-05)
(0 -0.000662187 -3.15487e-06)
(0 -0.000544712 4.93974e-06)
(0 -0.000472397 8.41921e-06)
(0 -0.000617632 1.3255e-05)
(0 -0.00050782 1.10674e-05)
(0 -0.000569767 1.24791e-05)
(0 -0.000677347 1.48057e-05)
(0 -0.000550827 1.19873e-05)
(0 -0.000678216 1.46894e-05)
(0 -0.000632576 1.35882e-05)
(0 -0.000648625 1.37656e-05)
(0 -0.000859364 1.78351e-05)
(0 -0.000747293 1.49251e-05)
(0 -0.00095393 1.80271e-05)
(0 -0.00103882 1.91298e-05)
(0 -0.00106098 2.23253e-05)
(0 -0.000851444 2.16072e-05)
(0 -0.000820289 2.22621e-05)
(0 -0.000755539 2.10797e-05)
(0 -0.00112311 3.16146e-05)
(0 -0.000711043 2.00957e-05)
(0 -0.000785896 2.22571e-05)
(0 -0.000761552 2.15864e-05)
(0 -0.000887309 2.51396e-05)
(0 -0.000998792 2.82793e-05)
(0 -0.000758558 2.14487e-05)
(0 -0.000767965 2.16692e-05)
(0 -0.000932762 2.61832e-05)
(0 -0.00117969 3.28353e-05)
(0 -0.00112254 3.08107e-05)
(0 -0.00101438 2.71875e-05)
(0 -0.000925541 2.38204e-05)
(0 -0.00130498 3.10213e-05)
(0 -0.000853902 1.7039e-05)
(0 -0.00122817 1.49647e-05)
(0 -0.00115607 -6.10167e-06)
(0 -0.00114682 5.7388e-06)
(0 -0.00104437 7.40231e-05)
(0 -0.00111382 9.11165e-05)
(0 -0.00101334 5.72716e-05)
(0 -0.0012238 4.76822e-05)
(0 -0.00144069 4.51947e-05)
(0 -0.00163182 4.59276e-05)
(0 -0.0016318 4.51658e-05)
(0 -0.00122734 3.59073e-05)
(0 -0.00144564 4.18931e-05)
(0 -0.00102753 3.05081e-05)
(0 -0.0015384 4.54905e-05)
(0 -0.00136909 4.12271e-05)
(0 -0.00102865 3.24881e-05)
(0 -0.00153996 4.83455e-05)
(0 -0.00154127 5.06399e-05)
(0 -0.00102997 3.58949e-05)
(0 -0.00129817 4.58585e-05)
(0 -0.00136812 5.04636e-05)
(0 -0.00153445 5.95954e-05)
(0 -0.00111507 4.53937e-05)
(0 -0.0010648 4.59263e-05)
(0 -0.00101936 4.57162e-05)
(0 -0.0014291 6.55844e-05)
(0 -0.00160795 7.6001e-05)
(0 -0.00133173 6.64801e-05)
(0 -0.00118795 6.35059e-05)
(0 -0.00137619 7.85481e-05)
(0 -0.00143635 9.0478e-05)
(0 -0.00150026 9.57267e-05)
(0 -0.00122013 8.09779e-05)
(0 0 -7.3691e-211)
(0 8.79662e-303 -5.08436e-172)
(0 2.32345e-294 -8.53787e-149)
(0 2.36266e-277 -1.30671e-144)
(0 1.81131e-253 -5.41303e-136)
(0 1.42223e-239 -3.60878e-124)
(0 4.26698e-237 -2.66701e-117)
(0 5.21759e-233 -4.19061e-116)
(0 2.16615e-225 -4.39239e-114)
(0 6.78038e-220 -2.1795e-110)
(0 2.54938e-199 -1.55573e-107)
(0 2.54938e-199 -3.04496e-97)
(0 8.23756e-101 0)
(0 1.48778e-50 -3.93524e-45)
(0 4.52532e-29 -1.88878e-21)
(0 3.93392e-21 -1.77275e-11)
(0 -1.10888e-11 -1.18196e-07)
(0 -1.29433e-07 -0.00233479)
(0 -1.01795e-05 -0.00176441)
(0 -8.90924e-05 -0.00228506)
(0 -2.76093e-05 -0.000938028)
(0 -2.76697e-05 -0.000366149)
(0 -3.44648e-05 -0.000109137)
(0 -0.000110194 -1.01432e-05)
(0 -0.00056988 -3.54349e-06)
(0 -0.000633739 2.6431e-06)
(0 -0.000847939 1.12138e-05)
(0 -0.000804126 1.28371e-05)
(0 -0.00104511 1.78962e-05)
(0 -0.000944919 1.6944e-05)
(0 -0.000684335 1.26628e-05)
(0 -0.000797554 1.49168e-05)
(0 -0.000813816 1.51117e-05)
(0 -0.000831343 1.56702e-05)
(0 -0.00077666 1.72729e-05)
(0 -0.00113651 3.12965e-05)
(0 -0.00102428 3.14274e-05)
(0 -0.000889785 2.79891e-05)
(0 -0.000788673 2.51071e-05)
(0 -0.00106495 3.41248e-05)
(0 -0.0012938 4.16371e-05)
(0 -0.000892692 2.88147e-05)
(0 -0.00132434 4.27697e-05)
(0 -0.000836702 2.69223e-05)
(0 -0.000922111 2.93225e-05)
(0 -0.00120507 3.75172e-05)
(0 -0.00114907 3.47062e-05)
(0 -0.000994412 2.9624e-05)
(0 -0.00100389 3.08382e-05)
(0 -0.00118153 3.76101e-05)
(0 -0.0012613 4.10484e-05)
(0 -0.00135086 4.45308e-05)
(0 -0.00114639 3.80657e-05)
(0 -0.00104506 3.48649e-05)
(0 -0.000961226 3.21727e-05)
(0 -0.00101224 3.39518e-05)
(0 -0.00140212 4.71199e-05)
(0 -0.00150635 5.06186e-05)
(0 -0.00151682 5.09049e-05)
(0 -0.00114497 3.82813e-05)
(0 -0.00144034 4.78368e-05)
(0 -0.00154559 5.07527e-05)
(0 -0.00129492 4.16718e-05)
(0 -0.0013778 4.29365e-05)
(0 -0.00106889 3.15984e-05)
(0 -0.00102581 2.76943e-05)
(0 -0.00131527 3.00835e-05)
(0 -0.00125201 2.06208e-05)
(0 -0.00133585 1.1089e-05)
(0 -0.00111588 1.00656e-05)
(0 -0.00103516 5.94164e-05)
(0 -0.00141425 0.000125653)
(0 -0.00175956 0.000123405)
(0 -0.00116829 6.41939e-05)
(0 -0.00132014 5.72712e-05)
(0 -0.00120098 4.72519e-05)
(0 -0.0012506 4.5869e-05)
(0 -0.00182407 6.82973e-05)
(0 -0.00136718 5.14951e-05)
(0 -0.00123979 4.7865e-05)
(0 -0.00113348 4.34454e-05)
(0 -0.00112958 4.28822e-05)
(0 -0.00149649 5.80758e-05)
(0 -0.00111891 4.3942e-05)
(0 -0.00127198 5.16126e-05)
(0 -0.00139765 5.90927e-05)
(0 -0.00120035 5.20774e-05)
(0 -0.00109348 4.85335e-05)
(0 -0.0012395 5.72587e-05)
(0 -0.00107689 5.29644e-05)
(0 -0.00170126 8.79936e-05)
(0 -0.00148615 7.90122e-05)
(0 -0.00131279 6.79053e-05)
(0 -0.00136482 7.19663e-05)
(0 -0.00142257 7.98513e-05)
(0 -0.00132093 7.85586e-05)
(0 -0.00101661 6.50072e-05)
(0 -0.00142684 9.53617e-05)
(0 -0.00112239 7.78457e-05)
(0 -0.000999672 7.1608e-05)
(0 1.26447e-116 -1.97377e-68)
(0 3.18855e-101 -8.5216e-56)
(0 2.08333e-98 -3.29213e-48)
(0 1.3195e-92 -6.18536e-47)
(0 1.00567e-84 -3.65312e-44)
(0 3.67593e-80 -2.71126e-40)
(0 2.45598e-79 -4.42863e-38)
(0 4.84477e-78 -1.16154e-37)
(0 1.48952e-75 -5.14368e-37)
(0 1.34263e-73 -7.12042e-36)
(0 8.8999e-67 -5.58539e-35)
(0 8.89995e-67 -1.48493e-31)
(0 2.67817e-32 -1.76199e-33)
(0 2.55201e-16 -8.21537e-13)
(0 -3.05806e-08 -3.70348e-05)
(0 -2.08568e-06 -0.00231276)
(0 -0.000839718 -0.000926664)
(0 -0.00060666 -0.000854493)
(0 -0.000945185 -0.000167565)
(0 -0.00103227 -1.57037e-05)
(0 -0.000871216 -4.08021e-06)
(0 -0.00119597 -5.38242e-06)
(0 -0.00100267 -1.82375e-06)
(0 -0.000883807 4.81533e-07)
(0 -0.00117537 2.81929e-06)
(0 -0.0010108 8.53866e-06)
(0 -0.0012515 2.09622e-05)
(0 -0.00142103 3.11112e-05)
(0 -0.000971399 2.40953e-05)
(0 -0.000974986 2.61945e-05)
(0 -0.00126789 3.61974e-05)
(0 -0.00144512 4.28155e-05)
(0 -0.00099112 3.00713e-05)
(0 -0.0014647 4.59944e-05)
(0 -0.00130208 4.38172e-05)
(0 -0.00123797 4.40565e-05)
(0 -0.00112103 4.1023e-05)
(0 -0.00141026 5.22889e-05)
(0 -0.00151397 5.64874e-05)
(0 -0.000993481 3.72176e-05)
(0 -0.00109483 4.10774e-05)
(0 -0.00144574 5.42147e-05)
(0 -0.00105746 3.95011e-05)
(0 -0.00101707 3.76819e-05)
(0 -0.00147014 5.37449e-05)
(0 -0.00102809 3.69122e-05)
(0 -0.00139878 4.92584e-05)
(0 -0.00119568 4.1712e-05)
(0 -0.00120234 4.23333e-05)
(0 -0.00100695 3.60477e-05)
(0 -0.00161905 5.88051e-05)
(0 -0.00110874 4.06608e-05)
(0 -0.0012249 4.51994e-05)
(0 -0.0010695 3.95977e-05)
(0 -0.0010738 3.98503e-05)
(0 -0.00145871 5.42141e-05)
(0 -0.00113141 4.20763e-05)
(0 -0.00166573 6.18811e-05)
(0 -0.00139298 5.15783e-05)
(0 -0.00147991 5.44171e-05)
(0 -0.00148458 5.40467e-05)
(0 -0.00120513 4.31892e-05)
(0 -0.00169187 5.91671e-05)
(0 -0.00159005 5.35929e-05)
(0 -0.00134196 4.27879e-05)
(0 -0.00159758 4.69194e-05)
(0 -0.00111447 2.90651e-05)
(0 -0.00143093 3.19702e-05)
(0 -0.00117945 2.35801e-05)
(0 -0.00124663 3.03025e-05)
(0 -0.00175956 8.18909e-05)
(0 -0.0017656 0.000136592)
(0 -0.0016736 0.00010624)
(0 -0.00198049 0.000114597)
(0 -0.00127733 6.73852e-05)
(0 -0.00160751 7.74227e-05)
(0 -0.00119999 5.4636e-05)
(0 -0.0016776 6.99347e-05)
(0 -0.00157557 6.71298e-05)
(0 -0.00148296 6.37979e-05)
(0 -0.00174573 7.45875e-05)
(0 -0.00132107 5.60644e-05)
(0 -0.00125079 5.3032e-05)
(0 -0.00130001 5.79615e-05)
(0 -0.0013551 6.21753e-05)
(0 -0.00112273 5.2599e-05)
(0 -0.00121491 5.9097e-05)
(0 -0.00110489 5.47251e-05)
(0 -0.0011417 5.88751e-05)
(0 -0.00123708 6.61587e-05)
(0 -0.00160217 8.39354e-05)
(0 -0.00168729 8.85827e-05)
(0 -0.00104382 5.55525e-05)
(0 -0.00112171 6.11945e-05)
(0 -0.00134896 7.52453e-05)
(0 -0.00108764 6.42555e-05)
(0 -0.00155796 9.78435e-05)
(0 -0.00127252 8.32413e-05)
(0 -0.0013177 9.58549e-05)
(0 -0.000999416 8.15286e-05)
(0 3.56683e-39 -2.78281e-21)
(0 3.71624e-34 -1.87386e-17)
(0 3.16381e-33 -3.612e-15)
(0 1.99414e-31 -7.11081e-15)
(0 7.74861e-29 -5.36456e-14)
(0 2.55407e-27 -8.47402e-13)
(0 6.86473e-27 -3.37963e-12)
(0 1.51574e-26 -4.77947e-12)
(0 8.37915e-26 -8.05876e-12)
(0 3.24861e-25 -1.45847e-11)
(0 5.75619e-23 -3.26935e-11)
(0 6.02647e-23 -3.38009e-10)
(0 -1.43114e-09 -4.55304e-11)
(0 -0.00301377 -3.16847e-12)
(0 -0.00231697 1.10052e-08)
(0 -0.00151217 9.30618e-07)
(0 -0.00110819 9.01047e-06)
(0 -0.000975914 1.24931e-05)
(0 -0.00111967 4.49055e-06)
(0 -0.00139747 4.67188e-08)
(0 -0.00148354 -3.31532e-08)
(0 -0.00156238 -3.02454e-06)
(0 -0.00145817 -4.23985e-06)
(0 -0.00117204 -1.71809e-06)
(0 -0.00152769 2.89763e-06)
(0 -0.00127944 1.2276e-05)
(0 -0.00115129 1.92527e-05)
(0 -0.00120402 2.68391e-05)
(0 -0.00141405 3.68633e-05)
(0 -0.0015025 4.34889e-05)
(0 -0.00104594 3.25858e-05)
(0 -0.00150698 4.94625e-05)
(0 -0.00120882 4.12471e-05)
(0 -0.00121295 4.30728e-05)
(0 -0.00101415 3.77337e-05)
(0 -0.00162852 6.29895e-05)
(0 -0.00153177 6.06881e-05)
(0 -0.001366 5.48691e-05)
(0 -0.00164471 6.65462e-05)
(0 -0.00112492 4.56547e-05)
(0 -0.0013794 5.60187e-05)
(0 -0.00108283 4.38959e-05)
(0 -0.00104081 4.19736e-05)
(0 -0.00131875 5.27716e-05)
(0 -0.00139632 5.52851e-05)
(0 -0.00132699 5.18383e-05)
(0 -0.00133134 5.14039e-05)
(0 -0.0011536 4.42537e-05)
(0 -0.00149791 5.76181e-05)
(0 -0.00170299 6.60046e-05)
(0 -0.00121983 4.76841e-05)
(0 -0.00151091 5.94183e-05)
(0 -0.00117041 4.62058e-05)
(0 -0.00161335 6.382e-05)
(0 -0.00143752 5.69268e-05)
(0 -0.00123497 4.89237e-05)
(0 -0.00162461 6.42951e-05)
(0 -0.0016282 6.42744e-05)
(0 -0.00118657 4.65956e-05)
(0 -0.00174399 6.79181e-05)
(0 -0.00137958 5.30822e-05)
(0 -0.0016416 6.20453e-05)
(0 -0.00131591 4.85053e-05)
(0 -0.00146521 5.21256e-05)
(0 -0.00165223 5.59688e-05)
(0 -0.0013254 4.21123e-05)
(0 -0.00120907 3.55477e-05)
(0 -0.0011133 3.0497e-05)
(0 -0.00179127 4.85086e-05)
(0 -0.00142277 4.37589e-05)
(0 -0.00118102 5.25309e-05)
(0 -0.00136754 8.99421e-05)
(0 -0.00141943 8.30102e-05)
(0 -0.00154819 8.78354e-05)
(0 -0.0017845 9.84149e-05)
(0 -0.00142554 7.25747e-05)
(0 -0.00196678 9.57086e-05)
(0 -0.00127347 5.58248e-05)
(0 -0.00192883 8.35979e-05)
(0 -0.0017935 7.68999e-05)
(0 -0.00135751 5.90337e-05)
(0 -0.00128602 5.56726e-05)
(0 -0.0012195 5.32426e-05)
(0 -0.0017328 7.68736e-05)
(0 -0.00182984 8.36074e-05)
(0 -0.00151034 7.20131e-05)
(0 -0.00179045 8.7588e-05)
(0 -0.00120877 6.13129e-05)
(0 -0.00163727 8.54157e-05)
(0 -0.00161693 8.68125e-05)
(0 -0.00116544 6.27108e-05)
(0 -0.00105844 5.71598e-05)
(0 -0.0010915 6.11658e-05)
(0 -0.00130095 7.32896e-05)
(0 -0.00115986 6.53698e-05)
(0 -0.00132759 7.8688e-05)
(0 -0.00106895 6.67088e-05)
(0 -0.00109871 7.31273e-05)
(0 -0.00132543 9.70668e-05)
(0 -0.00145837 0.000120521)
(0 7.41284e-14 -4.45976e-06)
(0 -6.09643e-12 -3.26164e-05)
(0 -9.72202e-12 -9.09833e-05)
(0 -3.93802e-11 -7.12266e-05)
(0 -2.60338e-10 -6.40802e-05)
(0 -2.91313e-10 -5.22397e-05)
(0 -2.32621e-10 -3.66114e-05)
(0 -4.16259e-10 -3.67558e-05)
(0 -4.36525e-10 -3.3957e-05)
(0 -6.47289e-10 -2.94343e-05)
(0 -3.53885e-09 -2.9598e-05)
(0 -1.56533e-09 -2.24176e-05)
(0 -1.34777e-09 -2.59108e-05)
(0 -9.4556e-10 -2.37064e-05)
(0 -3.92646e-07 -1.93162e-05)
(0 -0.000476601 0.00165625)
(0 -0.000981497 0.0007879)
(0 -0.00095809 0.000272577)
(0 -0.00093721 6.65469e-05)
(0 -0.000951664 2.57549e-05)
(0 -0.000964995 1.87608e-05)
(0 -0.00114455 6.16636e-06)
(0 -0.00128709 -3.75523e-06)
(0 -0.0013712 -7.0608e-07)
(0 -0.00124417 2.27385e-06)
(0 -0.00155692 1.25429e-05)
(0 -0.00113549 1.78751e-05)
(0 -0.00125031 2.77579e-05)
(0 -0.00139092 3.69238e-05)
(0 -0.00147488 4.4482e-05)
(0 -0.00147774 4.84507e-05)
(0 -0.00132515 4.62553e-05)
(0 -0.00132843 4.86066e-05)
(0 -0.00140597 5.35303e-05)
(0 -0.0011532 4.55212e-05)
(0 -0.00110553 4.50159e-05)
(0 -0.00121333 5.04658e-05)
(0 -0.00141842 5.97673e-05)
(0 -0.00134637 5.71403e-05)
(0 -0.00142391 6.0591e-05)
(0 -0.00116716 4.96728e-05)
(0 -0.00107183 4.55002e-05)
(0 -0.00151608 6.40495e-05)
(0 -0.00112262 4.71287e-05)
(0 -0.00107787 4.48931e-05)
(0 -0.00162016 6.68568e-05)
(0 -0.00118073 4.83468e-05)
(0 -0.00173563 7.07168e-05)
(0 -0.00144945 5.90608e-05)
(0 -0.00124483 5.08741e-05)
(0 -0.00113862 4.67058e-05)
(0 -0.00109298 4.4985e-05)
(0 -0.00145969 6.02171e-05)
(0 -0.00154796 6.39356e-05)
(0 -0.00131768 5.44371e-05)
(0 -0.00175952 7.2661e-05)
(0 -0.00132144 5.44859e-05)
(0 -0.00132321 5.43843e-05)
(0 -0.0014722 6.01866e-05)
(0 -0.00156091 6.33309e-05)
(0 -0.00147619 5.92242e-05)
(0 -0.00120943 4.77541e-05)
(0 -0.00133235 5.147e-05)
(0 -0.00127094 4.76735e-05)
(0 -0.00116258 4.20015e-05)
(0 -0.00121816 4.20162e-05)
(0 -0.00111968 3.67302e-05)
(0 -0.00112314 3.53602e-05)
(0 -0.00150164 4.70365e-05)
(0 -0.00150236 5.00589e-05)
(0 -0.00112042 4.49138e-05)
(0 -0.0015849 0.0001015)
(0 -0.00148857 9.08832e-05)
(0 -0.00206509 0.000119336)
(0 -0.00160359 8.98277e-05)
(0 -0.00166249 8.54315e-05)
(0 -0.00184259 8.97083e-05)
(0 -0.00132765 6.07166e-05)
(0 -0.00169588 7.4358e-05)
(0 -0.00124526 5.53545e-05)
(0 -0.0018883 8.50032e-05)
(0 -0.00117348 5.44497e-05)
(0 -0.00116348 5.4571e-05)
(0 -0.00120357 5.46805e-05)
(0 -0.0013711 6.24989e-05)
(0 -0.0015085 7.04231e-05)
(0 -0.00128141 6.1458e-05)
(0 -0.00126829 6.41424e-05)
(0 -0.00119826 6.13554e-05)
(0 -0.00137171 7.19439e-05)
(0 -0.00143255 7.94525e-05)
(0 -0.00134196 7.58402e-05)
(0 -0.00139628 7.92962e-05)
(0 -0.00118064 6.76445e-05)
(0 -0.00106286 6.22301e-05)
(0 -0.00100315 6.1323e-05)
(0 -0.0012427 8.1333e-05)
(0 -0.00121849 8.44607e-05)
(0 -0.00150287 0.000108302)
(0 -0.00145795 0.000108912)
(0 -1.37858e-06 -0.00015741)
(0 -1.84491e-06 -4.31542e-05)
(0 -1.81916e-06 -2.56928e-05)
(0 -2.07103e-06 -1.96121e-05)
(0 -4.94235e-06 -1.64639e-05)
(0 -7.81391e-06 -1.26713e-05)
(0 -5.61448e-06 -7.54812e-06)
(0 -7.1512e-06 -7.86706e-06)
(0 -8.65214e-06 -6.64973e-06)
(0 -8.10777e-06 -4.22868e-06)
(0 -1.15647e-05 -3.34202e-06)
(0 -1.20954e-05 -3.06516e-06)
(0 -8.5735e-06 -2.66076e-06)
(0 -9.59608e-06 -2.82006e-06)
(0 -1.24574e-05 -2.49203e-06)
(0 -1.33706e-05 -3.1177e-06)
(0 -8.90093e-06 -6.92891e-06)
(0 -1.09732e-05 -7.55364e-07)
(0 -9.2065e-05 0.000216004)
(0 -0.000619932 0.000328186)
(0 -0.000863647 0.000115806)
(0 -0.000970242 3.4555e-05)
(0 -0.00100763 1.89886e-05)
(0 -0.00147066 2.7269e-05)
(0 -0.00112169 2.08138e-05)
(0 -0.0010185 2.02823e-05)
(0 -0.0010819 2.54287e-05)
(0 -0.00139478 3.77761e-05)
(0 -0.00115089 3.45084e-05)
(0 -0.00158871 5.21778e-05)
(0 -0.00141808 5.01227e-05)
(0 -0.00128094 4.79592e-05)
(0 -0.00142769 5.57384e-05)
(0 -0.00143177 5.77579e-05)
(0 -0.00112335 4.65493e-05)
(0 -0.00129454 5.48226e-05)
(0 -0.00123508 5.31178e-05)
(0 -0.00118074 5.12847e-05)
(0 -0.00123866 5.40873e-05)
(0 -0.00113236 4.9538e-05)
(0 -0.00113371 4.95763e-05)
(0 -0.00124316 5.42389e-05)
(0 -0.00118805 5.16396e-05)
(0 -0.00113774 4.92043e-05)
(0 -0.00109168 4.69499e-05)
(0 -0.00154335 6.59823e-05)
(0 -0.00125111 5.32054e-05)
(0 -0.00164455 6.96938e-05)
(0 -0.00138685 5.8703e-05)
(0 -0.00138875 5.87917e-05)
(0 -0.00155415 6.58585e-05)
(0 -0.00146956 6.23348e-05)
(0 -0.00110332 4.68464e-05)
(0 -0.00139513 5.92604e-05)
(0 -0.00176898 7.51063e-05)
(0 -0.00120722 5.1214e-05)
(0 -0.00126585 5.35982e-05)
(0 -0.00156517 6.60571e-05)
(0 -0.00133159 5.59333e-05)
(0 -0.00121163 5.05604e-05)
(0 -0.00111169 4.59526e-05)
(0 -0.00121401 4.95096e-05)
(0 -0.00121543 4.87031e-05)
(0 -0.0017852 6.98931e-05)
(0 -0.00116607 4.4348e-05)
(0 -0.00158067 5.80554e-05)
(0 -0.00112196 3.96487e-05)
(0 -0.00142021 4.82876e-05)
(0 -0.00128699 4.25385e-05)
(0 -0.00122998 4.07775e-05)
(0 -0.00129409 4.81494e-05)
(0 -0.001333 7.38966e-05)
(0 -0.00171558 0.000107175)
(0 -0.00162873 9.41427e-05)
(0 -0.00201926 0.000113848)
(0 -0.00130338 6.77522e-05)
(0 -0.00196223 9.2314e-05)
(0 -0.00132561 6.07883e-05)
(0 -0.00131002 5.8201e-05)
(0 -0.00167644 7.70085e-05)
(0 -0.00134629 6.01188e-05)
(0 -0.00164424 7.70611e-05)
(0 -0.00184201 8.64775e-05)
(0 -0.00119144 5.70881e-05)
(0 -0.00118075 5.73234e-05)
(0 -0.00112263 5.46036e-05)
(0 -0.00111306 5.66487e-05)
(0 -0.00120267 6.35997e-05)
(0 -0.00113997 6.20768e-05)
(0 -0.00112858 6.23461e-05)
(0 -0.00160172 9.09271e-05)
(0 -0.00140845 7.98411e-05)
(0 -0.00108952 6.25173e-05)
(0 -0.00112281 6.74004e-05)
(0 -0.00110523 6.7654e-05)
(0 -0.00119197 7.71804e-05)
(0 -0.00122927 8.33644e-05)
(0 -0.00120432 8.65747e-05)
(0 -0.00117905 8.61498e-05)
(0 -0.00109562 8.13736e-05)
(0 -0.00038767 8.46886e-07)
(0 -0.000460083 4.31745e-06)
(0 -0.000423871 5.00945e-06)
(0 -0.000436715 5.66895e-06)
(0 -0.000377323 4.90176e-06)
(0 -0.000313481 3.79136e-06)
(0 -0.000465596 5.02481e-06)
(0 -0.000362924 3.49075e-06)
(0 -0.000289054 2.47813e-06)
(0 -0.000331786 2.48149e-06)
(0 -0.000300352 2.06054e-06)
(0 -0.000335848 2.09289e-06)
(0 -0.000367478 1.92278e-06)
(0 -0.000371369 1.60058e-06)
(0 -0.000334627 1.00888e-06)
(0 -0.000630704 2.68529e-06)
(0 -0.000896813 7.03365e-06)
(0 -0.000939223 1.14465e-05)
(0 -0.00136734 2.07115e-05)
(0 -0.00138195 2.07911e-05)
(0 -0.00154637 2.59019e-05)
(0 -0.00127822 2.98835e-05)
(0 -0.00146168 4.43252e-05)
(0 -0.0012078 3.67314e-05)
(0 -0.00170181 5.06644e-05)
(0 -0.00122754 3.5655e-05)
(0 -0.00129408 3.77912e-05)
(0 -0.00162227 4.90571e-05)
(0 -0.00124218 4.00378e-05)
(0 -0.00109135 3.75557e-05)
(0 -0.00109495 3.9837e-05)
(0 -0.00154952 5.90645e-05)
(0 -0.00176016 6.94411e-05)
(0 -0.00155632 6.30403e-05)
(0 -0.00126212 5.21645e-05)
(0 -0.00120645 5.06192e-05)
(0 -0.00166082 7.04037e-05)
(0 -0.00139988 5.97153e-05)
(0 -0.00133089 5.69577e-05)
(0 -0.00147973 6.33818e-05)
(0 -0.00133252 5.70536e-05)
(0 -0.001111 4.75015e-05)
(0 -0.00156942 6.69431e-05)
(0 -0.00177981 7.56864e-05)
(0 -0.00111307 4.71771e-05)
(0 -0.00140704 5.94563e-05)
(0 -0.00116322 4.90027e-05)
(0 -0.00148761 6.25538e-05)
(0 -0.00116518 4.89477e-05)
(0 -0.00149011 6.25717e-05)
(0 -0.00116708 4.90215e-05)
(0 -0.00158023 6.63888e-05)
(0 -0.00141491 5.94517e-05)
(0 -0.00128104 5.38322e-05)
(0 -0.00141683 5.95161e-05)
(0 -0.00117116 4.91545e-05)
(0 -0.00128353 5.38003e-05)
(0 -0.00158663 6.63563e-05)
(0 -0.00179949 7.49931e-05)
(0 -0.00142172 5.89457e-05)
(0 -0.0011264 4.6357e-05)
(0 -0.00159179 6.48685e-05)
(0 -0.0013545 5.44875e-05)
(0 -0.00159567 6.31264e-05)
(0 -0.00159818 6.18685e-05)
(0 -0.00170113 6.40771e-05)
(0 -0.00118553 4.31242e-05)
(0 -0.00151726 5.26082e-05)
(0 -0.00118736 3.82208e-05)
(0 -0.0011315 3.18525e-05)
(0 -0.00120699 2.76266e-05)
(0 -0.00184941 9.23327e-05)
(0 -0.00205661 0.000149402)
(0 -0.00149972 9.50335e-05)
(0 -0.001821 9.9594e-05)
(0 -0.00179373 9.13768e-05)
(0 -0.00131055 5.9406e-05)
(0 -0.0013521 6.04667e-05)
(0 -0.00127885 5.60908e-05)
(0 -0.00193682 8.47077e-05)
(0 -0.00125483 5.44156e-05)
(0 -0.00178288 7.7511e-05)
(0 -0.00118054 5.14804e-05)
(0 -0.00147486 6.8087e-05)
(0 -0.00173335 8.19816e-05)
(0 -0.00119646 5.86625e-05)
(0 -0.00151073 7.64337e-05)
(0 -0.00149441 7.7465e-05)
(0 -0.00156362 8.39303e-05)
(0 -0.00163971 8.80321e-05)
(0 -0.00172752 9.58262e-05)
(0 -0.00116821 6.58092e-05)
(0 -0.00110396 6.47021e-05)
(0 -0.00156005 9.26036e-05)
(0 -0.0010709 6.52848e-05)
(0 -0.00126971 7.93493e-05)
(0 -0.00138878 8.93474e-05)
(0 -0.00153833 0.000106655)
(0 -0.0015023 0.000106892)
(0 -0.00128933 9.72913e-05)
(0 -0.00104144 -3.47116e-07)
(0 -0.000983008 5.5393e-06)
(0 -0.00151424 1.46306e-05)
(0 -0.00134241 1.443e-05)
(0 -0.000958136 1.01188e-05)
(0 -0.00116779 1.17138e-05)
(0 -0.00108237 1.02605e-05)
(0 -0.00105951 9.781e-06)
(0 -0.00108589 9.74627e-06)
(0 -0.00106771 9.70856e-06)
(0 -0.00124794 1.11822e-05)
(0 -0.0015715 1.40257e-05)
(0 -0.00143624 1.3245e-05)
(0 -0.00185229 1.71963e-05)
(0 -0.00118701 1.18938e-05)
(0 -0.00153049 1.64304e-05)
(0 -0.00185438 2.37189e-05)
(0 -0.00177941 2.8838e-05)
(0 -0.00191453 3.57614e-05)
(0 -0.00141252 2.693e-05)
(0 -0.00130722 2.63434e-05)
(0 -0.00136949 3.18942e-05)
(0 -0.00174326 4.05916e-05)
(0 -0.00164408 3.5512e-05)
(0 -0.00206466 3.78656e-05)
(0 -0.00146666 2.61371e-05)
(0 -0.00160997 2.97123e-05)
(0 -0.00202878 3.98578e-05)
(0 -0.00168579 3.69963e-05)
(0 -0.00201863 4.96933e-05)
(0 -0.00159212 4.19651e-05)
(0 -0.00177803 4.95459e-05)
(0 -0.00201408 5.84063e-05)
(0 -0.00137247 4.10041e-05)
(0 -0.00188583 5.75427e-05)
(0 -0.00150731 4.6702e-05)
(0 -0.00125471 3.92633e-05)
(0 -0.0013076 4.11964e-05)
(0 -0.00125136 3.96184e-05)
(0 -0.00199924 6.35188e-05)
(0 -0.0014258 4.54302e-05)
(0 -0.00186846 5.9705e-05)
(0 -0.00175582 5.62377e-05)
(0 -0.00198689 6.38103e-05)
(0 -0.00148793 4.7875e-05)
(0 -0.00129199 4.17054e-05)
(0 -0.00197832 6.39959e-05)
(0 -0.00185217 6.01393e-05)
(0 -0.00123315 4.01865e-05)
(0 -0.00164202 5.36848e-05)
(0 -0.00196775 6.46119e-05)
(0 -0.00173386 5.71443e-05)
(0 -0.00127977 4.23697e-05)
(0 -0.00163296 5.42936e-05)
(0 -0.00163065 5.44125e-05)
(0 -0.00172411 5.77662e-05)
(0 -0.00139384 4.69256e-05)
(0 -0.00146165 4.93627e-05)
(0 -0.00145986 4.94404e-05)
(0 -0.00162026 5.49623e-05)
(0 -0.00126684 4.29605e-05)
(0 -0.00126586 4.28726e-05)
(0 -0.00126516 4.26764e-05)
(0 -0.00145444 4.87212e-05)
(0 -0.0018179 6.02422e-05)
(0 -0.00138546 4.5158e-05)
(0 -0.00181948 5.77431e-05)
(0 -0.00126706 3.83343e-05)
(0 -0.00138973 3.78135e-05)
(0 -0.00121856 2.45204e-05)
(0 -0.00183364 7.87393e-06)
(0 -0.00126975 3.27289e-05)
(0 -0.00145303 0.000114083)
(0 -0.00167503 0.000113721)
(0 -0.00164835 8.10423e-05)
(0 -0.00214328 8.50891e-05)
(0 -0.00174992 6.4019e-05)
(0 -0.00162627 6.20816e-05)
(0 -0.00144949 5.58998e-05)
(0 -0.00187389 7.03633e-05)
(0 -0.00148238 5.68536e-05)
(0 -0.00133242 5.25888e-05)
(0 -0.00120801 4.86555e-05)
(0 -0.00150498 6.29825e-05)
(0 -0.00123049 5.33751e-05)
(0 -0.00139685 6.36855e-05)
(0 -0.00137889 6.38041e-05)
(0 -0.00129623 6.16821e-05)
(0 -0.00178617 8.53244e-05)
(0 -0.00110321 5.37442e-05)
(0 -0.00173437 8.94857e-05)
(0 -0.00122451 6.78172e-05)
(0 -0.00140384 7.99796e-05)
(0 -0.00108172 6.19872e-05)
(0 -0.00106213 6.50828e-05)
(0 -0.00108816 6.6913e-05)
(0 -0.00101912 6.41047e-05)
(0 -0.00134559 9.21065e-05)
(0 -0.00107083 7.65232e-05)
(0 -0.00115301 8.65845e-05)
(0 -0.00326536 -2.93916e-07)
(0 -0.00351023 2.77833e-06)
(0 -0.00283392 3.84847e-06)
(0 -0.00316826 4.74443e-06)
(0 -0.00318047 4.67077e-06)
(0 -0.00286946 4.09198e-06)
(0 -0.00319126 4.5035e-06)
(0 -0.00358913 5.24515e-06)
(0 -0.00302125 4.59609e-06)
(0 -0.00358191 5.94373e-06)
(0 -0.0031803 5.54051e-06)
(0 -0.00317585 5.82302e-06)
(0 -0.00356805 7.13261e-06)
(0 -0.0031687 6.69002e-06)
(0 -0.00356001 8.53315e-06)
(0 -0.0027083 7.16369e-06)
(0 -0.00257865 7.92603e-06)
(0 -0.00256841 9.12279e-06)
(0 -0.00295498 1.08219e-05)
(0 -0.00232442 8.36127e-06)
(0 -0.00230295 8.41015e-06)
(0 -0.00340924 1.3877e-05)
(0 -0.00284382 1.06111e-05)
(0 -0.00297123 9.79458e-06)
(0 -0.00221452 5.39725e-06)
(0 -0.00229227 5.44764e-06)
(0 -0.00249352 6.35605e-06)
(0 -0.00237025 6.62451e-06)
(0 -0.00225905 7.37835e-06)
(0 -0.00304437 1.16753e-05)
(0 -0.00245883 1.0266e-05)
(0 -0.00270877 1.21468e-05)
(0 -0.00244301 1.1515e-05)
(0 -0.00340819 1.66736e-05)
(0 -0.00212214 1.06624e-05)
(0 -0.00220544 1.13102e-05)
(0 -0.00252565 1.31341e-05)
(0 -0.00314324 1.65293e-05)
(0 -0.00250319 1.32948e-05)
(0 -0.00216662 1.16123e-05)
(0 -0.00215638 1.16583e-05)
(0 -0.00259779 1.41813e-05)
(0 -0.00213567 1.17635e-05)
(0 -0.00257257 1.43151e-05)
(0 -0.00202666 1.1381e-05)
(0 -0.00322639 1.83283e-05)
(0 -0.00209377 1.20105e-05)
(0 -0.00281832 1.63617e-05)
(0 -0.00317778 1.86647e-05)
(0 -0.00206185 1.22379e-05)
(0 -0.00262065 1.57473e-05)
(0 -0.0019551 1.18796e-05)
(0 -0.00233331 1.43627e-05)
(0 -0.00244256 1.52269e-05)
(0 -0.00200652 1.26581e-05)
(0 -0.00199507 1.27544e-05)
(0 -0.00304116 1.97454e-05)
(0 -0.00226755 1.49184e-05)
(0 -0.00237261 1.58279e-05)
(0 -0.00280042 1.89376e-05)
(0 -0.00185562 1.27055e-05)
(0 -0.00295075 2.04573e-05)
(0 -0.00219954 1.54083e-05)
(0 -0.00291493 2.05827e-05)
(0 -0.00217312 1.54222e-05)
(0 -0.00227426 1.61443e-05)
(0 -0.00286495 2.01466e-05)
(0 -0.0025155 1.71657e-05)
(0 -0.00266301 1.66228e-05)
(0 -0.00236553 1.11867e-05)
(0 -0.00285672 3.11162e-06)
(0 -0.00255712 3.58056e-06)
(0 -0.00301519 5.68257e-05)
(0 -0.00266087 4.64592e-05)
(0 -0.00277229 3.33425e-05)
(0 -0.00227926 1.96546e-05)
(0 -0.00184745 1.438e-05)
(0 -0.00239496 2.09784e-05)
(0 -0.00234592 2.1582e-05)
(0 -0.00207093 1.85457e-05)
(0 -0.00176722 1.64741e-05)
(0 -0.00233997 2.38945e-05)
(0 -0.00162761 1.69752e-05)
(0 -0.00181868 1.98351e-05)
(0 -0.0019669 2.32517e-05)
(0 -0.00192387 2.38852e-05)
(0 -0.00170166 2.1804e-05)
(0 -0.00193667 2.62588e-05)
(0 -0.00148118 1.98136e-05)
(0 -0.0014425 2.09682e-05)
(0 -0.00178977 2.79514e-05)
(0 -0.00208661 3.67389e-05)
(0 -0.00151982 2.76223e-05)
(0 -0.00133513 2.60287e-05)
(0 -0.00165998 3.63928e-05)
(0 -0.00123412 2.8109e-05)
(0 -0.00112764 2.78171e-05)
(0 -0.00163851 4.66554e-05)
(0 -0.00145857 4.7823e-05)
(0 -0.00121864 4.47723e-05)
)
;

boundaryField
{
    inlet
    {
        type            fixedValue;
        value           uniform (0 -0.0005 0);
    }
    outlet
    {
        type            fluxCorrectedVelocity;
        phi             phi.gas;
        rho             rho.gas;
        value           nonuniform List<vector> 10((0 0 0) (0 0 0) (0 0 -7.3691e-211) (0 5.52095e-148 -1.97377e-68) (0 8.44647e-53 -2.78281e-21) (0 -9.45505e-18 -4.45976e-06) (0 -3.29858e-07 -0.00015741) (0 -0.000359923 8.46886e-07) (0 -0.00108431 -3.47116e-07) (0 -0.00326414 -2.93916e-07));
    }
    walls
    {
        type            fixedValue;
        value           uniform (0 0 0);
    }
}


// ************************************************************************* //
