/*--------------------------------*- C++ -*----------------------------------*\
| =========                 |                                                 |
| \\      /  F ield         | foam-extend: Open Source CFD                    |
|  \\    /   O peration     | Version:     5.0                                |
|   \\  /    A nd           | Web:         http://www.foam-extend.org         |
|    \\/     M anipulation  |                                                 |
\*---------------------------------------------------------------------------*/
FoamFile
{
    version     2.0;
    format      ascii;
    class       volVectorField;
    location    "6000";
    object      U.oil;
}
// * * * * * * * * * * * * * * * * * * * * * * * * * * * * * * * * * * * * * //

dimensions      [0 1 -1 0 0 0 0];

internalField   nonuniform List<vector> 
1000
(
(0 -0.000407343 -5.61822e-06)
(0 -0.000398653 -3.07147e-06)
(0 -0.000509476 -2.45284e-06)
(0 -0.000452184 -1.46837e-06)
(0 -0.000502573 -1.16796e-06)
(0 -0.000531807 -9.36535e-07)
(0 -0.000565459 -8.02778e-07)
(0 -0.000422975 -5.16958e-07)
(0 -0.000562646 -6.31266e-07)
(0 -0.000526314 -5.7446e-07)
(0 -0.000350102 -3.91104e-07)
(0 -0.000381047 -4.56262e-07)
(0 -0.000348406 -4.68735e-07)
(0 -0.000347382 -5.55285e-07)
(0 -0.00036117 -7.35281e-07)
(0 -0.000551137 -1.53013e-06)
(0 -0.000483093 -1.8542e-06)
(0 -0.000339195 -1.68233e-06)
(0 -0.000402557 -2.45872e-06)
(0 -0.000345371 -2.54037e-06)
(0 -0.00032592 -2.62616e-06)
(0 -0.000405285 -3.08584e-06)
(0 -0.000421806 -2.73766e-06)
(0 -0.000357407 -1.79421e-06)
(0 -0.000413228 -1.65389e-06)
(0 -0.000433819 -1.96536e-06)
(0 -0.000384768 -1.62711e-06)
(0 -0.000329805 -1.08946e-06)
(0 -0.000327972 -7.43388e-07)
(0 -0.000479177 -7.58081e-07)
(0 -0.000477922 -4.9764e-07)
(0 -0.000325381 -1.35656e-07)
(0 -0.00037711 5.10586e-07)
(0 -0.000378622 1.00092e-06)
(0 -0.000424255 -2.74482e-08)
(0 -0.000327434 -3.72729e-07)
(0 -0.000299705 -9.3104e-08)
(0 -0.000312626 -8.97074e-10)
(0 -0.000449526 1.06052e-07)
(0 -0.000359781 1.04633e-07)
(0 -0.000299945 6.89265e-08)
(0 -0.000360099 7.1179e-08)
(0 -0.000300121 1.48195e-08)
(0 -0.00042375 -3.13635e-08)
(0 -0.000312958 -1.56132e-07)
(0 -0.000326517 -4.94102e-07)
(0 -0.000476315 -1.80105e-06)
(0 -0.000352445 -1.95857e-06)
(0 -0.000316127 -8.94192e-07)
(0 -0.000405568 -6.17203e-07)
(0 -0.000326554 -3.67046e-07)
(0 -0.00034219 -3.83521e-07)
(0 -0.00031081 -3.5728e-07)
(0 -0.000341698 -3.94557e-07)
(0 -0.000401781 -4.75952e-07)
(0 -0.000325076 -4.00667e-07)
(0 -0.000454797 -5.87938e-07)
(0 -0.000340842 -4.66073e-07)
(0 -0.000400639 -5.73144e-07)
(0 -0.000425242 -6.47956e-07)
(0 -0.000424719 -7.0705e-07)
(0 -0.000376961 -7.00487e-07)
(0 -0.000282205 -5.9859e-07)
(0 -0.000355591 -8.91151e-07)
(0 -0.000374029 -1.18617e-06)
(0 -0.000291143 -1.30495e-06)
(0 -0.000368517 -2.66288e-06)
(0 -0.000309856 -4.42542e-06)
(0 -0.000343797 -1.0566e-05)
(0 -0.000313974 -2.26277e-06)
(0 -0.00031117 1.05637e-05)
(0 -0.00022173 5.46328e-06)
(0 -0.00026707 2.099e-06)
(0 -0.000208762 8.86444e-07)
(0 -0.000195066 3.34499e-07)
(0 -0.000183584 8.79541e-09)
(0 -0.000183466 -2.324e-07)
(0 -0.000174038 -3.96194e-07)
(0 -0.000186688 -4.35918e-07)
(0 -0.000134349 -3.28904e-07)
(0 -0.00014048 -2.39543e-07)
(0 -0.000132963 -2.99787e-07)
(0 -0.000125539 -3.73049e-07)
(0 -0.000141508 -3.19e-07)
(0 -0.000126202 -2.46232e-07)
(0 -9.5505e-05 -2.18789e-07)
(0 -0.000118035 -2.2736e-07)
(0 -7.58917e-05 -1.79824e-08)
(0 -7.64639e-05 -4.19207e-08)
(0 -6.64256e-05 -1.48154e-07)
(0 -8.99579e-05 -3.29225e-07)
(0 -6.45076e-05 -1.14552e-07)
(0 -4.92467e-05 6.33515e-08)
(0 -5.32246e-05 8.57056e-09)
(0 -4.94402e-05 -5.58205e-08)
(0 -3.52566e-05 1.24093e-08)
(0 -2.65435e-05 8.74395e-08)
(0 -1.7998e-05 6.91954e-08)
(0 -1.74585e-05 -1.42546e-07)
(0 -6.94796e-06 -1.26651e-07)
(0 -0.00054752 -1.7602e-05)
(0 -0.00039493 -7.84372e-06)
(0 -0.000478968 -6.27891e-06)
(0 -0.000451035 -4.10216e-06)
(0 -0.000355451 -2.3497e-06)
(0 -0.000354212 -1.79272e-06)
(0 -0.000529827 -2.18026e-06)
(0 -0.000352372 -1.2577e-06)
(0 -0.000421927 -1.39071e-06)
(0 -0.000443208 -1.42637e-06)
(0 -0.000494311 -1.6296e-06)
(0 -0.00044131 -1.5554e-06)
(0 -0.000398334 -1.56588e-06)
(0 -0.000490754 -2.26311e-06)
(0 -0.000489209 -2.83991e-06)
(0 -0.000360072 -2.88376e-06)
(0 -0.000548667 -6.28529e-06)
(0 -0.000407917 -6.05918e-06)
(0 -0.000424694 -7.74041e-06)
(0 -0.000361699 -8.17912e-06)
(0 -0.000434571 -1.10044e-05)
(0 -0.000366032 -8.61187e-06)
(0 -0.000445385 -8.82826e-06)
(0 -0.000394002 -5.75499e-06)
(0 -0.000391252 -4.09442e-06)
(0 -0.000368792 -5.32365e-06)
(0 -0.000347645 -4.63112e-06)
(0 -0.000402234 -4.02466e-06)
(0 -0.000342904 -2.22637e-06)
(0 -0.000478478 -2.15258e-06)
(0 -0.000311188 -1.03523e-06)
(0 -0.000445997 -1.17014e-06)
(0 -0.000393485 -9.06771e-07)
(0 -0.00038616 -7.24084e-07)
(0 -0.000358318 -4.66333e-07)
(0 -0.000277755 -2.89713e-07)
(0 -0.00034772 -2.77319e-07)
(0 -0.000274257 -1.99407e-07)
(0 -0.000298536 -2.06072e-07)
(0 -0.000345061 -2.64182e-07)
(0 -0.000272638 -2.62631e-07)
(0 -0.000326502 -3.84958e-07)
(0 -0.000296178 -4.71593e-07)
(0 -0.000295477 -6.13897e-07)
(0 -0.000381479 -1.21339e-06)
(0 -0.000323618 -1.72054e-06)
(0 -0.000404581 -3.75744e-06)
(0 -0.000433001 -5.16258e-06)
(0 -0.000433992 -3.28685e-06)
(0 -0.000342376 -1.77031e-06)
(0 -0.000324775 -1.39946e-06)
(0 -0.0002949 -1.22864e-06)
(0 -0.000432092 -1.78958e-06)
(0 -0.000269847 -1.12395e-06)
(0 -0.000294166 -1.24248e-06)
(0 -0.000281164 -1.22088e-06)
(0 -0.000323062 -1.4536e-06)
(0 -0.000358604 -1.6824e-06)
(0 -0.000268683 -1.31681e-06)
(0 -0.000268399 -1.38611e-06)
(0 -0.000321689 -1.78992e-06)
(0 -0.000401533 -2.4518e-06)
(0 -0.000377286 -2.59191e-06)
(0 -0.000336917 -2.69605e-06)
(0 -0.00030413 -2.98076e-06)
(0 -0.000424519 -5.51667e-06)
(0 -0.000276036 -5.27198e-06)
(0 -0.000396493 -1.26425e-05)
(0 -0.000376615 -2.10622e-05)
(0 -0.000368545 -1.24521e-05)
(0 -0.000290183 1.48599e-05)
(0 -0.000248968 1.61652e-05)
(0 -0.000187981 5.82287e-06)
(0 -0.00020259 1.5862e-06)
(0 -0.000221295 -9.5153e-08)
(0 -0.000236502 -1.09787e-06)
(0 -0.000224414 -1.25912e-06)
(0 -0.000158714 -7.22481e-07)
(0 -0.000177271 -1.09312e-06)
(0 -0.000117681 -7.13124e-07)
(0 -0.000167467 -1.16804e-06)
(0 -0.000141182 -1.0039e-06)
(0 -9.9026e-05 -6.43762e-07)
(0 -0.000140593 -1.11773e-06)
(0 -0.000133414 -8.80972e-07)
(0 -8.26335e-05 -4.44848e-07)
(0 -9.72837e-05 -6.44833e-07)
(0 -9.56682e-05 -4.8711e-07)
(0 -0.000100481 -4.43606e-07)
(0 -6.68184e-05 -2.99066e-07)
(0 -5.7664e-05 -2.23981e-07)
(0 -4.89166e-05 -1.86329e-07)
(0 -6.15842e-05 -3.07801e-07)
(0 -6.23609e-05 -4.57143e-07)
(0 -4.50316e-05 -3.5311e-07)
(0 -3.33791e-05 -2.61859e-07)
(0 -3.12256e-05 -3.26627e-07)
(0 -2.50504e-05 -2.25288e-07)
(0 -1.83407e-05 -6.00203e-07)
(0 -6.91999e-06 -3.82086e-07)
(0 -0.000410997 -1.55809e-05)
(0 -0.000409608 -1.08582e-05)
(0 -0.000571099 -1.06587e-05)
(0 -0.000502051 -6.73244e-06)
(0 -0.000354535 -3.53123e-06)
(0 -0.000404162 -3.13522e-06)
(0 -0.000403288 -2.585e-06)
(0 -0.000422621 -2.38507e-06)
(0 -0.00042183 -2.22509e-06)
(0 -0.000495348 -2.57032e-06)
(0 -0.000382041 -2.03511e-06)
(0 -0.000349508 -1.98273e-06)
(0 -0.000492392 -3.07405e-06)
(0 -0.000439608 -3.12646e-06)
(0 -0.000520923 -4.46268e-06)
(0 -0.000461836 -5.54423e-06)
(0 -0.000435128 -8.3203e-06)
(0 -0.000455193 -1.12785e-05)
(0 -0.000426828 -1.25329e-05)
(0 -0.000380441 -1.52516e-05)
(0 -0.00043379 -2.03492e-05)
(0 -0.000381434 -1.55602e-05)
(0 -0.000356562 -1.25172e-05)
(0 -0.000350223 -9.98221e-06)
(0 -0.000297032 -6.72352e-06)
(0 -0.000296605 -5.73752e-06)
(0 -0.000387483 -6.60353e-06)
(0 -0.000339604 -4.83503e-06)
(0 -0.0004264 -4.87085e-06)
(0 -0.000374359 -3.47906e-06)
(0 -0.000264012 -2.15e-06)
(0 -0.000300737 -2.42108e-06)
(0 -0.000300372 -3.04559e-06)
(0 -0.000300844 -3.32444e-06)
(0 -0.000274618 -1.42396e-06)
(0 -0.000393339 -9.15647e-07)
(0 -0.000348467 -1.01452e-06)
(0 -0.000298061 -9.77737e-07)
(0 -0.000260415 -9.55059e-07)
(0 -0.000346804 -1.36011e-06)
(0 -0.000415698 -1.74503e-06)
(0 -0.000283115 -1.29607e-06)
(0 -0.000414786 -2.1005e-06)
(0 -0.000258985 -1.49405e-06)
(0 -0.000282313 -1.94316e-06)
(0 -0.00036526 -3.07453e-06)
(0 -0.000345258 -3.569e-06)
(0 -0.000296532 -3.34641e-06)
(0 -0.000297048 -2.962e-06)
(0 -0.000346719 -2.98508e-06)
(0 -0.000367017 -2.8955e-06)
(0 -0.000389779 -2.95197e-06)
(0 -0.000328107 -2.44839e-06)
(0 -0.000296775 -2.21968e-06)
(0 -0.000270915 -2.04137e-06)
(0 -0.000283175 -2.16752e-06)
(0 -0.000389245 -3.03028e-06)
(0 -0.00041503 -3.32456e-06)
(0 -0.000414854 -3.44207e-06)
(0 -0.000311033 -2.70009e-06)
(0 -0.000388623 -3.57199e-06)
(0 -0.000414296 -4.10189e-06)
(0 -0.000345037 -3.78406e-06)
(0 -0.00036508 -4.55594e-06)
(0 -0.000281943 -4.14739e-06)
(0 -0.000269639 -4.88757e-06)
(0 -0.000344899 -8.11263e-06)
(0 -0.000328354 -1.0419e-05)
(0 -0.000351649 -1.48634e-05)
(0 -0.00029528 -1.19105e-05)
(0 -0.000264548 6.49736e-06)
(0 -0.000312889 1.95319e-05)
(0 -0.000337161 1.29634e-05)
(0 -0.000191818 3.86709e-06)
(0 -0.000195186 9.76093e-07)
(0 -0.000162649 1.33163e-07)
(0 -0.00015773 -4.46171e-07)
(0 -0.000220045 -4.15369e-07)
(0 -0.000156276 -4.54835e-07)
(0 -0.000133806 -3.79349e-07)
(0 -0.000115136 -5.61361e-07)
(0 -0.000107928 -7.05686e-07)
(0 -0.000136285 -8.99501e-07)
(0 -9.57587e-05 -7.48024e-07)
(0 -0.000102713 -7.62123e-07)
(0 -0.000106749 -7.02461e-07)
(0 -8.58635e-05 -6.1816e-07)
(0 -7.24535e-05 -5.53925e-07)
(0 -7.62548e-05 -5.2006e-07)
(0 -6.04363e-05 -2.5746e-07)
(0 -8.91857e-05 -3.22899e-07)
(0 -7.20099e-05 -4.09244e-07)
(0 -5.77517e-05 -7.24194e-07)
(0 -5.40921e-05 -7.07082e-07)
(0 -5.03831e-05 -5.25963e-07)
(0 -4.07722e-05 -4.2889e-07)
(0 -2.53323e-05 -2.25969e-07)
(0 -2.86252e-05 -3.91997e-07)
(0 -1.58628e-05 -2.61238e-07)
(0 -6.49203e-06 -2.03364e-07)
(0 -0.00047393 -1.89747e-05)
(0 -0.000473397 -1.40249e-05)
(0 -0.000354494 -7.66778e-06)
(0 -0.000386115 -6.14707e-06)
(0 -0.000471235 -5.68413e-06)
(0 -0.00047059 -4.51661e-06)
(0 -0.000445216 -3.61657e-06)
(0 -0.000383961 -2.81067e-06)
(0 -0.000383388 -2.67256e-06)
(0 -0.000443222 -3.07405e-06)
(0 -0.000525449 -3.75663e-06)
(0 -0.000466243 -3.54211e-06)
(0 -0.000398897 -3.29351e-06)
(0 -0.000398189 -3.59411e-06)
(0 -0.000439839 -4.11235e-06)
(0 -0.000523019 -6.46287e-06)
(0 -0.000416268 -1.21458e-05)
(0 -0.00047951 -2.05585e-05)
(0 -0.000461041 -2.10444e-05)
(0 -0.000465361 -2.3263e-05)
(0 -0.000300507 -1.61958e-05)
(0 -0.000387119 -2.09799e-05)
(0 -0.000305499 -1.59677e-05)
(0 -0.000263519 -1.2909e-05)
(0 -0.00035006 -1.49642e-05)
(0 -0.000298382 -8.11593e-06)
(0 -0.000364617 -7.4405e-06)
(0 -0.000409346 -7.27635e-06)
(0 -0.000277501 -4.6087e-06)
(0 -0.000276656 -4.13892e-06)
(0 -0.000357372 -4.86676e-06)
(0 -0.000404617 -5.26815e-06)
(0 -0.000275975 -3.53446e-06)
(0 -0.000405241 -4.84871e-06)
(0 -0.000357769 -3.31838e-06)
(0 -0.000337651 -2.46796e-06)
(0 -0.000303553 -2.02486e-06)
(0 -0.000379108 -2.47577e-06)
(0 -0.000404118 -2.67407e-06)
(0 -0.000263458 -1.77913e-06)
(0 -0.000288475 -2.01352e-06)
(0 -0.000378521 -2.75949e-06)
(0 -0.000275245 -2.13096e-06)
(0 -0.000263281 -2.20551e-06)
(0 -0.000378519 -3.48728e-06)
(0 -0.000263469 -2.69097e-06)
(0 -0.00035684 -3.99908e-06)
(0 -0.000303775 -3.55056e-06)
(0 -0.000304215 -3.44081e-06)
(0 -0.00025377 -2.70393e-06)
(0 -0.000406235 -4.11969e-06)
(0 -0.000277073 -2.73244e-06)
(0 -0.000304875 -2.96968e-06)
(0 -0.000265197 -2.58229e-06)
(0 -0.000265298 -2.59198e-06)
(0 -0.000359043 -3.52967e-06)
(0 -0.000277536 -2.75574e-06)
(0 -0.000407158 -4.11734e-06)
(0 -0.000339389 -3.52712e-06)
(0 -0.000359459 -3.88962e-06)
(0 -0.000359561 -4.08152e-06)
(0 -0.000291177 -3.52851e-06)
(0 -0.000407778 -5.38669e-06)
(0 -0.000382435 -5.63132e-06)
(0 -0.000322276 -5.42627e-06)
(0 -0.000383173 -7.53491e-06)
(0 -0.000267247 -6.22228e-06)
(0 -0.000343158 -9.3664e-06)
(0 -0.000283127 -8.38024e-06)
(0 -0.000299372 -7.26369e-06)
(0 -0.000414727 6.90513e-07)
(0 -0.000371309 1.70855e-05)
(0 -0.000296779 1.05979e-05)
(0 -0.000312411 9.39289e-06)
(0 -0.000178496 3.5732e-06)
(0 -0.000208579 2.53463e-06)
(0 -0.000143975 1.08998e-06)
(0 -0.000191558 2.5502e-07)
(0 -0.000171516 3.98328e-07)
(0 -0.000153783 2.13054e-07)
(0 -0.000173884 -9.71037e-08)
(0 -0.000125087 -2.80639e-07)
(0 -0.000112292 -4.02048e-07)
(0 -0.000110807 -1.95013e-07)
(0 -0.000109808 -2.36853e-07)
(0 -8.54083e-05 -2.33595e-07)
(0 -8.68202e-05 -1.83822e-07)
(0 -7.33924e-05 -2.43654e-07)
(0 -7.02449e-05 -2.12856e-07)
(0 -7.04116e-05 -2.49366e-07)
(0 -8.53566e-05 -7.26603e-07)
(0 -8.41611e-05 -7.76006e-07)
(0 -4.65062e-05 -4.2185e-07)
(0 -4.40622e-05 -3.98977e-07)
(0 -4.67779e-05 -4.56692e-07)
(0 -3.15363e-05 -2.08371e-07)
(0 -3.8053e-05 -1.60863e-07)
(0 -2.44717e-05 -1.14255e-07)
(0 -1.81732e-05 2.19037e-07)
(0 -6.42521e-06 2.33693e-07)
(0 -0.000422006 -1.71637e-05)
(0 -0.000422212 -1.28099e-05)
(0 -0.000367359 -8.19753e-06)
(0 -0.000402532 -6.67379e-06)
(0 -0.000402614 -5.14159e-06)
(0 -0.00042269 -4.41637e-06)
(0 -0.000469421 -4.30226e-06)
(0 -0.000422126 -3.60632e-06)
(0 -0.00036666 -3.06269e-06)
(0 -0.000467901 -3.94612e-06)
(0 -0.000382284 -3.34031e-06)
(0 -0.000493957 -4.59862e-06)
(0 -0.000558825 -5.67746e-06)
(0 -0.000522552 -5.9934e-06)
(0 -0.000437311 -5.87216e-06)
(0 -0.000508135 -8.30858e-06)
(0 -0.000409058 -8.76097e-06)
(0 -0.000302718 -1.01038e-05)
(0 -0.000314771 -1.56203e-05)
(0 -0.000374826 -1.98551e-05)
(0 -0.000385399 -1.88365e-05)
(0 -0.000397969 -2.13419e-05)
(0 -0.000366695 -2.02246e-05)
(0 -0.000292437 -1.57467e-05)
(0 -0.000380478 -1.90411e-05)
(0 -0.000318251 -1.30157e-05)
(0 -0.000286017 -9.39445e-06)
(0 -0.000298695 -8.0524e-06)
(0 -0.000350189 -8.10063e-06)
(0 -0.000371373 -7.49789e-06)
(0 -0.000258215 -4.62179e-06)
(0 -0.000371234 -6.01148e-06)
(0 -0.000297232 -4.42319e-06)
(0 -0.000297608 -3.9794e-06)
(0 -0.000248287 -2.86205e-06)
(0 -0.000397434 -3.9671e-06)
(0 -0.000372621 -3.38783e-06)
(0 -0.000331253 -2.86339e-06)
(0 -0.000397556 -3.37153e-06)
(0 -0.00027114 -2.30522e-06)
(0 -0.000331509 -2.85214e-06)
(0 -0.00025955 -2.28791e-06)
(0 -0.000248867 -2.28426e-06)
(0 -0.000314545 -3.02836e-06)
(0 -0.000332261 -3.38237e-06)
(0 -0.00031508 -3.41462e-06)
(0 -0.000315474 -3.58726e-06)
(0 -0.000272858 -3.18348e-06)
(0 -0.000353611 -4.08627e-06)
(0 -0.00040123 -4.51449e-06)
(0 -0.00028688 -3.13188e-06)
(0 -0.000354677 -3.80172e-06)
(0 -0.000274284 -2.90881e-06)
(0 -0.000377414 -3.98944e-06)
(0 -0.000335716 -3.54784e-06)
(0 -0.000287965 -3.05087e-06)
(0 -0.000378216 -4.04143e-06)
(0 -0.000378468 -4.09823e-06)
(0 -0.000275446 -3.05642e-06)
(0 -0.000404274 -4.63829e-06)
(0 -0.000319401 -3.83141e-06)
(0 -0.000379588 -4.83296e-06)
(0 -0.000303938 -4.16842e-06)
(0 -0.000338049 -5.09065e-06)
(0 -0.000380788 -6.40172e-06)
(0 -0.000305164 -5.78046e-06)
(0 -0.000278127 -5.92798e-06)
(0 -0.000255873 -5.94235e-06)
(0 -0.000411314 -9.58346e-06)
(0 -0.000326326 -6.24401e-06)
(0 -0.000267715 -1.13595e-06)
(0 -0.000277632 7.59872e-06)
(0 -0.000238202 6.90097e-06)
(0 -0.000224542 5.948e-06)
(0 -0.000237334 5.31121e-06)
(0 -0.00017513 2.37436e-06)
(0 -0.000229866 2.14191e-06)
(0 -0.000139476 2.11118e-07)
(0 -0.00020263 7.06277e-08)
(0 -0.000180714 -2.37656e-07)
(0 -0.000129789 -1.7937e-07)
(0 -0.000116208 -3.11749e-07)
(0 -0.00010376 -3.30307e-07)
(0 -0.000140911 -4.77991e-07)
(0 -0.000142583 -4.07297e-07)
(0 -0.000111754 -1.98458e-07)
(0 -0.000126547 -3.1343e-07)
(0 -7.98385e-05 -1.61139e-07)
(0 -0.000102396 -2.66117e-07)
(0 -9.56945e-05 -2.65398e-07)
(0 -6.36487e-05 -2.77819e-07)
(0 -5.22739e-05 -2.76545e-07)
(0 -4.80894e-05 -1.84706e-07)
(0 -5.12331e-05 -3.81249e-07)
(0 -3.9646e-05 -4.19517e-07)
(0 -3.89872e-05 -3.15687e-07)
(0 -2.51449e-05 -1.56106e-07)
(0 -1.89107e-05 7.32334e-09)
(0 -1.48632e-05 2.36347e-07)
(0 -7.32883e-06 4.61525e-07)
(0 -0.000521588 -2.08642e-05)
(0 -0.000464801 -1.33624e-05)
(0 -0.000381446 -7.89995e-06)
(0 -0.000382453 -5.85662e-06)
(0 -0.000468356 -5.61685e-06)
(0 -0.000444216 -4.55774e-06)
(0 -0.000367082 -3.5041e-06)
(0 -0.000496479 -4.63463e-06)
(0 -0.000383338 -3.62794e-06)
(0 -0.000366272 -3.55588e-06)
(0 -0.00038247 -3.84711e-06)
(0 -0.000525253 -5.6436e-06)
(0 -0.000399741 -4.63873e-06)
(0 -0.000493434 -6.55086e-06)
(0 -0.000381554 -6.32269e-06)
(0 -0.000382313 -7.32392e-06)
(0 -0.000521397 -5.56647e-06)
(0 -0.000539642 -3.8117e-06)
(0 -0.00040377 -5.03533e-06)
(0 -0.000325732 -6.01553e-06)
(0 -0.000280166 -9.06832e-06)
(0 -0.000306419 -1.55288e-05)
(0 -0.000328457 -1.93039e-05)
(0 -0.000339464 -1.88022e-05)
(0 -0.000301062 -1.59362e-05)
(0 -0.000372419 -1.71824e-05)
(0 -0.000268777 -1.01652e-05)
(0 -0.000294291 -9.08782e-06)
(0 -0.000326287 -8.55393e-06)
(0 -0.000345176 -7.70737e-06)
(0 -0.000345211 -6.73536e-06)
(0 -0.000309091 -5.31336e-06)
(0 -0.000309458 -4.75263e-06)
(0 -0.000327115 -4.4882e-06)
(0 -0.000268007 -3.26741e-06)
(0 -0.000256646 -2.78352e-06)
(0 -0.000281337 -2.80062e-06)
(0 -0.00032847 -3.09539e-06)
(0 -0.000311401 -2.84875e-06)
(0 -0.000328936 -2.98662e-06)
(0 -0.000269336 -2.45338e-06)
(0 -0.000247097 -2.28867e-06)
(0 -0.000349134 -3.31631e-06)
(0 -0.000258296 -2.52982e-06)
(0 -0.000247803 -2.51637e-06)
(0 -0.000372139 -3.92843e-06)
(0 -0.000271011 -2.9479e-06)
(0 -0.000398046 -4.40357e-06)
(0 -0.00033217 -3.66359e-06)
(0 -0.000285096 -3.10359e-06)
(0 -0.000260624 -2.79477e-06)
(0 -0.000250048 -2.64392e-06)
(0 -0.000333743 -3.49592e-06)
(0 -0.000353718 -3.6859e-06)
(0 -0.00030095 -3.13445e-06)
(0 -0.000401643 -4.18988e-06)
(0 -0.000301519 -3.16504e-06)
(0 -0.000301813 -3.20969e-06)
(0 -0.000335678 -3.64465e-06)
(0 -0.000355786 -3.97187e-06)
(0 -0.000336385 -3.90855e-06)
(0 -0.000275556 -3.37592e-06)
(0 -0.000303513 -3.97538e-06)
(0 -0.000289491 -4.11131e-06)
(0 -0.00026478 -4.11851e-06)
(0 -0.000277388 -4.7552e-06)
(0 -0.000254886 -4.77994e-06)
(0 -0.000255543 -5.10383e-06)
(0 -0.000341441 -6.83902e-06)
(0 -0.000341344 -6.14868e-06)
(0 -0.000251759 -2.89892e-06)
(0 -0.000320616 6.42389e-06)
(0 -0.000248702 7.01581e-06)
(0 -0.000306825 6.55075e-06)
(0 -0.000217168 3.73713e-06)
(0 -0.000210248 2.12871e-06)
(0 -0.00022178 1.33467e-06)
(0 -0.000150214 3.07697e-07)
(0 -0.000183656 -2.49476e-07)
(0 -0.000127499 -1.21579e-07)
(0 -0.000186402 -2.78444e-07)
(0 -0.000109497 -1.14074e-07)
(0 -0.000102451 -2.32321e-07)
(0 -0.000100048 -6.00256e-07)
(0 -0.000108124 -7.19008e-07)
(0 -0.000113189 -6.93557e-07)
(0 -9.05466e-05 -5.0613e-07)
(0 -8.39762e-05 -2.69324e-07)
(0 -7.37269e-05 -3.11875e-07)
(0 -7.86352e-05 -2.65827e-07)
(0 -7.63229e-05 -1.01653e-08)
(0 -6.56838e-05 -1.10551e-07)
(0 -6.24493e-05 -3.08785e-07)
(0 -4.70205e-05 -3.29853e-07)
(0 -3.63641e-05 -2.7423e-07)
(0 -2.8063e-05 -2.10851e-07)
(0 -2.77475e-05 -1.37683e-07)
(0 -1.99959e-05 -1.67231e-07)
(0 -1.6377e-05 -3.39055e-07)
(0 -7.21494e-06 -3.32202e-07)
(0 -0.000548603 -2.00604e-05)
(0 -0.000360118 -8.65501e-06)
(0 -0.000463111 -7.63019e-06)
(0 -0.00034909 -4.2053e-06)
(0 -0.000400401 -3.94519e-06)
(0 -0.000561852 -5.17612e-06)
(0 -0.000444026 -4.17093e-06)
(0 -0.000443955 -4.40998e-06)
(0 -0.000495821 -5.23086e-06)
(0 -0.000382653 -4.22942e-06)
(0 -0.000400348 -4.55971e-06)
(0 -0.000560089 -6.56093e-06)
(0 -0.000381543 -4.70001e-06)
(0 -0.000466368 -6.206e-06)
(0 -0.000365245 -5.48618e-06)
(0 -0.000526067 -9.0935e-06)
(0 -0.000467072 -9.36883e-06)
(0 -0.000362535 -7.79186e-06)
(0 -0.000390077 -4.90859e-06)
(0 -0.000395855 -2.77955e-06)
(0 -0.000417026 -3.74757e-06)
(0 -0.000368085 -6.4587e-06)
(0 -0.000309326 -7.98256e-06)
(0 -0.000415774 -1.33461e-05)
(0 -0.000289137 -9.54698e-06)
(0 -0.000247397 -8.21281e-06)
(0 -0.000255028 -7.70326e-06)
(0 -0.000324551 -8.66334e-06)
(0 -0.000264991 -6.26517e-06)
(0 -0.000364153 -7.51629e-06)
(0 -0.000323877 -5.81344e-06)
(0 -0.000291778 -4.57827e-06)
(0 -0.000324688 -4.53191e-06)
(0 -0.000325242 -4.07701e-06)
(0 -0.000254947 -2.88963e-06)
(0 -0.000293623 -3.03661e-06)
(0 -0.000280011 -2.6958e-06)
(0 -0.000267599 -2.4535e-06)
(0 -0.000280647 -2.50437e-06)
(0 -0.000256513 -2.26675e-06)
(0 -0.000256781 -2.27364e-06)
(0 -0.000281533 -2.51945e-06)
(0 -0.000269027 -2.44965e-06)
(0 -0.000257624 -2.40125e-06)
(0 -0.000247198 -2.35971e-06)
(0 -0.000349439 -3.41553e-06)
(0 -0.000283275 -2.82631e-06)
(0 -0.000372331 -3.75567e-06)
(0 -0.000313991 -3.17274e-06)
(0 -0.000314429 -3.16438e-06)
(0 -0.000351881 -3.51396e-06)
(0 -0.000332741 -3.2979e-06)
(0 -0.000249856 -2.45846e-06)
(0 -0.00031597 -3.09568e-06)
(0 -0.000400663 -3.92377e-06)
(0 -0.000273482 -2.68133e-06)
(0 -0.00028683 -2.8299e-06)
(0 -0.00035472 -3.53893e-06)
(0 -0.000301865 -3.06362e-06)
(0 -0.000274768 -2.8565e-06)
(0 -0.000252216 -2.71358e-06)
(0 -0.000275555 -3.10691e-06)
(0 -0.000276008 -3.29426e-06)
(0 -0.000405534 -5.18761e-06)
(0 -0.000265021 -3.66755e-06)
(0 -0.00035937 -5.40878e-06)
(0 -0.000255168 -4.17022e-06)
(0 -0.000323044 -5.68228e-06)
(0 -0.000292734 -5.41018e-06)
(0 -0.000279686 -5.13396e-06)
(0 -0.000292973 -4.11303e-06)
(0 -0.000277017 2.78086e-06)
(0 -0.000301743 8.52517e-06)
(0 -0.000246735 4.96469e-06)
(0 -0.000282416 5.22432e-06)
(0 -0.000166307 2.04722e-06)
(0 -0.000238174 1.26711e-06)
(0 -0.000151112 6.1695e-07)
(0 -0.000141006 1.88098e-07)
(0 -0.000173004 4.34701e-07)
(0 -0.000132164 -6.75499e-08)
(0 -0.000154944 2.52714e-07)
(0 -0.000167564 -2.36298e-08)
(0 -0.000102709 -7.90042e-09)
(0 -9.62413e-05 -6.81082e-08)
(0 -8.60388e-05 -1.61529e-07)
(0 -7.98838e-05 8.12555e-09)
(0 -8.09003e-05 6.73674e-08)
(0 -7.12863e-05 7.57157e-08)
(0 -6.51093e-05 -4.72281e-09)
(0 -8.67397e-05 -3.42315e-08)
(0 -7.07454e-05 -1.82142e-07)
(0 -4.91861e-05 -1.38401e-07)
(0 -4.49022e-05 -5.86091e-09)
(0 -3.82096e-05 -7.66763e-08)
(0 -3.50055e-05 1.08239e-10)
(0 -2.98147e-05 -4.9588e-08)
(0 -2.27183e-05 -2.79224e-08)
(0 -1.53186e-05 -1.46642e-07)
(0 -6.50055e-06 -1.42779e-07)
(0 -0.000456591 -1.35905e-05)
(0 -0.000523965 -8.6624e-06)
(0 -0.000466743 -5.05018e-06)
(0 -0.000469956 -3.75802e-06)
(0 -0.000401519 -3.0125e-06)
(0 -0.000335851 -2.9085e-06)
(0 -0.000504769 -5.13864e-06)
(0 -0.000404321 -4.7419e-06)
(0 -0.000337295 -4.34397e-06)
(0 -0.000404914 -5.48173e-06)
(0 -0.000385875 -5.21868e-06)
(0 -0.000450467 -5.90384e-06)
(0 -0.000507065 -6.79279e-06)
(0 -0.000507116 -6.93993e-06)
(0 -0.000384917 -5.7907e-06)
(0 -0.000499211 -7.60387e-06)
(0 -0.000487562 -7.59888e-06)
(0 -0.000373855 -6.24901e-06)
(0 -0.000480209 -7.83679e-06)
(0 -0.000436833 -7.27451e-06)
(0 -0.00045304 -4.20108e-06)
(0 -0.000345001 -1.95583e-07)
(0 -0.000371386 -4.63729e-07)
(0 -0.000291166 -3.26411e-06)
(0 -0.000399112 -6.00722e-06)
(0 -0.000280382 -5.29081e-06)
(0 -0.000290986 -6.00303e-06)
(0 -0.000361977 -7.40365e-06)
(0 -0.000275151 -5.13965e-06)
(0 -0.000240518 -4.00765e-06)
(0 -0.000240678 -3.52961e-06)
(0 -0.000340388 -4.39345e-06)
(0 -0.000386629 -4.46523e-06)
(0 -0.000341888 -3.57394e-06)
(0 -0.000277331 -2.66048e-06)
(0 -0.000265226 -2.37289e-06)
(0 -0.000365313 -3.10457e-06)
(0 -0.000308107 -2.53578e-06)
(0 -0.000293116 -2.3734e-06)
(0 -0.000326112 -2.63263e-06)
(0 -0.000293874 -2.38119e-06)
(0 -0.00024521 -2.00543e-06)
(0 -0.00034662 -2.87403e-06)
(0 -0.00039334 -3.31602e-06)
(0 -0.000246178 -2.11143e-06)
(0 -0.000311409 -2.7102e-06)
(0 -0.000257635 -2.27584e-06)
(0 -0.000329695 -2.93457e-06)
(0 -0.000258412 -2.3089e-06)
(0 -0.000330676 -2.95641e-06)
(0 -0.000259154 -2.3111e-06)
(0 -0.000351088 -3.12464e-06)
(0 -0.000314533 -2.79497e-06)
(0 -0.000284931 -2.52729e-06)
(0 -0.000315304 -2.79912e-06)
(0 -0.000260783 -2.32324e-06)
(0 -0.000285972 -2.56004e-06)
(0 -0.000353703 -3.19443e-06)
(0 -0.000401381 -3.67857e-06)
(0 -0.00031732 -2.96993e-06)
(0 -0.0002516 -2.42583e-06)
(0 -0.00035579 -3.56084e-06)
(0 -0.000302977 -3.17878e-06)
(0 -0.000357167 -3.96631e-06)
(0 -0.000357975 -4.25903e-06)
(0 -0.000381292 -4.90727e-06)
(0 -0.000265953 -3.74845e-06)
(0 -0.000340645 -5.36218e-06)
(0 -0.000266864 -4.87051e-06)
(0 -0.000254644 -5.74997e-06)
(0 -0.000269809 -7.8684e-06)
(0 -0.000376938 4.3791e-07)
(0 -0.000360971 1.34788e-05)
(0 -0.000223912 6.75962e-06)
(0 -0.000247696 4.52554e-06)
(0 -0.000228015 3.16676e-06)
(0 -0.00015442 7.68685e-07)
(0 -0.000149337 5.51654e-07)
(0 -0.000132843 1.49457e-07)
(0 -0.000193386 -6.76115e-08)
(0 -0.000118338 -2.01985e-07)
(0 -0.000161213 -4.55735e-07)
(0 -0.000100449 -3.22876e-07)
(0 -0.000119036 -4.71763e-08)
(0 -0.000133501 -8.57365e-08)
(0 -8.62317e-05 1.34571e-08)
(0 -0.000102715 1.95861e-08)
(0 -9.55895e-05 -2.82459e-08)
(0 -9.40041e-05 1.8568e-08)
(0 -9.25477e-05 -2.52022e-07)
(0 -9.16312e-05 -2.24351e-07)
(0 -5.62257e-05 -1.80714e-07)
(0 -4.71028e-05 -9.00123e-08)
(0 -5.98997e-05 -3.10519e-07)
(0 -3.49218e-05 -2.18927e-07)
(0 -3.45019e-05 -2.92914e-07)
(0 -3.05305e-05 -2.97937e-07)
(0 -2.62329e-05 -9.47997e-08)
(0 -1.77659e-05 -1.85542e-07)
(0 -7.01428e-06 -3.7575e-08)
(0 -0.000307879 -8.49299e-06)
(0 -0.000304581 -4.22728e-06)
(0 -0.000475623 -3.55912e-06)
(0 -0.000424341 -2.35536e-06)
(0 -0.000302891 -1.84357e-06)
(0 -0.000364444 -2.86258e-06)
(0 -0.000330834 -3.2139e-06)
(0 -0.000315133 -3.51957e-06)
(0 -0.000313271 -3.87181e-06)
(0 -0.000298096 -3.80928e-06)
(0 -0.000338477 -4.39442e-06)
(0 -0.000416222 -5.32955e-06)
(0 -0.000370849 -4.71535e-06)
(0 -0.000468615 -6.02888e-06)
(0 -0.000291768 -3.79754e-06)
(0 -0.000367052 -4.11608e-06)
(0 -0.000433165 -2.66645e-06)
(0 -0.000401877 -3.96197e-07)
(0 -0.000418881 -1.38363e-06)
(0 -0.000297507 -1.96588e-06)
(0 -0.000265112 -1.94959e-06)
(0 -0.000268397 -1.14462e-06)
(0 -0.000333505 -2.20194e-06)
(0 -0.000308175 -3.45027e-06)
(0 -0.000382814 -6.60516e-06)
(0 -0.000269011 -5.13071e-06)
(0 -0.000294019 -5.69251e-06)
(0 -0.00037063 -6.87814e-06)
(0 -0.000308353 -4.98295e-06)
(0 -0.000370282 -4.95207e-06)
(0 -0.000292976 -3.40468e-06)
(0 -0.000328397 -3.3075e-06)
(0 -0.000373398 -3.32072e-06)
(0 -0.000255407 -2.04454e-06)
(0 -0.000352241 -2.60797e-06)
(0 -0.000282574 -1.97927e-06)
(0 -0.000236079 -1.6039e-06)
(0 -0.000246912 -1.65519e-06)
(0 -0.000237126 -1.58534e-06)
(0 -0.000380147 -2.55539e-06)
(0 -0.000272048 -1.8457e-06)
(0 -0.000357732 -2.45017e-06)
(0 -0.000337319 -2.33705e-06)
(0 -0.000383018 -2.68136e-06)
(0 -0.000287823 -2.04459e-06)
(0 -0.000250784 -1.79303e-06)
(0 -0.000385319 -2.78879e-06)
(0 -0.000361976 -2.62865e-06)
(0 -0.000241814 -1.76314e-06)
(0 -0.000323067 -2.3686e-06)
(0 -0.000388438 -2.85008e-06)
(0 -0.000343389 -2.52836e-06)
(0 -0.000254273 -1.87242e-06)
(0 -0.000325487 -2.40053e-06)
(0 -0.000326059 -2.41635e-06)
(0 -0.00034584 -2.57001e-06)
(0 -0.00028046 -2.08186e-06)
(0 -0.000295014 -2.20533e-06)
(0 -0.00029556 -2.22852e-06)
(0 -0.000329041 -2.5162e-06)
(0 -0.000258042 -2.01772e-06)
(0 -0.00025861 -2.07325e-06)
(0 -0.000259227 -2.1552e-06)
(0 -0.000298892 -2.60199e-06)
(0 -0.000374704 -3.45734e-06)
(0 -0.000286408 -2.84528e-06)
(0 -0.000377274 -4.13771e-06)
(0 -0.000263521 -3.33259e-06)
(0 -0.000289989 -4.63745e-06)
(0 -0.000255314 -6.03683e-06)
(0 -0.000386241 -1.56627e-05)
(0 -0.000258008 -4.5008e-06)
(0 -0.000250002 1.10181e-05)
(0 -0.000243036 8.51196e-06)
(0 -0.000213384 2.66628e-06)
(0 -0.000260688 4.23558e-07)
(0 -0.00020066 -4.21894e-07)
(0 -0.000176849 -2.5649e-07)
(0 -0.000149475 -4.10192e-07)
(0 -0.000186022 -1.02706e-06)
(0 -0.000140558 -7.38994e-07)
(0 -0.000120207 -6.3756e-07)
(0 -0.000103071 -5.72767e-07)
(0 -0.000122752 -6.57232e-07)
(0 -9.49224e-05 -4.70602e-07)
(0 -0.00010229 -3.87394e-07)
(0 -9.56378e-05 -5.02506e-07)
(0 -8.45938e-05 -4.44532e-07)
(0 -0.000111207 -7.73299e-07)
(0 -6.34633e-05 -4.40182e-07)
(0 -9.4329e-05 -4.39748e-07)
(0 -6.1309e-05 -1.0291e-07)
(0 -6.48085e-05 -2.51401e-07)
(0 -4.452e-05 -3.12972e-07)
(0 -3.80065e-05 -1.49524e-07)
(0 -3.2981e-05 -3.35469e-07)
(0 -2.46991e-05 -3.02437e-07)
(0 -2.58131e-05 -1.66288e-07)
(0 -1.38253e-05 -1.16125e-07)
(0 -6.6623e-06 -9.66789e-08)
(0 -0.000298803 -6.77775e-06)
(0 -0.00032823 -4.23552e-06)
(0 -0.000269757 -1.55931e-06)
(0 -0.000305341 -1.25538e-06)
(0 -0.000308913 -1.36872e-06)
(0 -0.00027963 -1.40825e-06)
(0 -0.000311117 -1.77859e-06)
(0 -0.000349784 -2.08111e-06)
(0 -0.000293821 -1.85565e-06)
(0 -0.000348052 -2.11767e-06)
(0 -0.000308742 -2.0061e-06)
(0 -0.000308363 -2.07723e-06)
(0 -0.000347036 -2.18606e-06)
(0 -0.000308843 -1.97677e-06)
(0 -0.00034799 -1.81652e-06)
(0 -0.000265277 -1.26215e-06)
(0 -0.000252638 -8.05482e-07)
(0 -0.000250559 -4.0247e-07)
(0 -0.000286161 -7.09459e-07)
(0 -0.000221724 -9.13136e-07)
(0 -0.000215322 -1.12409e-06)
(0 -0.000314323 -1.41337e-06)
(0 -0.000257715 -1.89641e-06)
(0 -0.000265366 -2.67703e-06)
(0 -0.000194005 -2.82901e-06)
(0 -0.000197923 -2.98862e-06)
(0 -0.00021381 -3.1062e-06)
(0 -0.000202694 -2.7372e-06)
(0 -0.000193406 -2.19638e-06)
(0 -0.000262477 -2.30767e-06)
(0 -0.000213544 -1.57236e-06)
(0 -0.000237386 -1.44961e-06)
(0 -0.000216133 -1.1362e-06)
(0 -0.000304473 -1.42047e-06)
(0 -0.000191424 -8.23902e-07)
(0 -0.000200873 -8.19724e-07)
(0 -0.00023222 -9.29935e-07)
(0 -0.000291692 -1.16291e-06)
(0 -0.000234432 -9.37051e-07)
(0 -0.000204755 -8.24405e-07)
(0 -0.000205633 -8.36354e-07)
(0 -0.000249993 -1.02131e-06)
(0 -0.000207396 -8.55149e-07)
(0 -0.000252145 -1.04254e-06)
(0 -0.00020048 -8.36618e-07)
(0 -0.000322208 -1.34024e-06)
(0 -0.000211076 -8.84694e-07)
(0 -0.000286862 -1.19799e-06)
(0 -0.000326604 -1.36333e-06)
(0 -0.000213954 -8.98859e-07)
(0 -0.0002746 -1.15068e-06)
(0 -0.000206843 -8.70875e-07)
(0 -0.000249276 -1.0451e-06)
(0 -0.000263526 -1.10365e-06)
(0 -0.000218613 -9.19139e-07)
(0 -0.000219523 -9.20346e-07)
(0 -0.000338066 -1.39948e-06)
(0 -0.000254663 -1.05602e-06)
(0 -0.000269262 -1.11549e-06)
(0 -0.000321236 -1.33396e-06)
(0 -0.000215183 -9.02436e-07)
(0 -0.000346024 -1.46777e-06)
(0 -0.000260894 -1.13274e-06)
(0 -0.000349801 -1.57304e-06)
(0 -0.000263916 -1.24367e-06)
(0 -0.000279594 -1.40376e-06)
(0 -0.000356674 -1.96656e-06)
(0 -0.000317347 -2.02052e-06)
(0 -0.000340873 -2.78427e-06)
(0 -0.000308095 -3.77259e-06)
(0 -0.000380853 -8.09679e-06)
(0 -0.00034768 -6.92633e-06)
(0 -0.000383217 8.40389e-06)
(0 -0.00029053 4.29376e-06)
(0 -0.000266617 9.43753e-07)
(0 -0.00019816 -7.67867e-07)
(0 -0.000146604 -7.59162e-07)
(0 -0.000180755 -4.90215e-07)
(0 -0.000169884 -4.33992e-07)
(0 -0.000143794 -5.89454e-07)
(0 -0.000117007 -4.30759e-07)