/*--------------------------------*- C++ -*----------------------------------*\
| =========                 |                                                 |
| \\      /  F ield         | foam-extend: Open Source CFD                    |
|  \\    /   O peration     | Version:     5.0                                |
|   \\  /    A nd           | Web:         http://www.foam-extend.org         |
|    \\/     M anipulation  |                                                 |
\*---------------------------------------------------------------------------*/
FoamFile
{
    version     2.0;
    format      ascii;
    class       volVectorField;
    location    "6000";
    object      U.water;
}
// * * * * * * * * * * * * * * * * * * * * * * * * * * * * * * * * * * * * * //

dimensions      [0 1 -1 0 0 0 0];

internalField   nonuniform List<vector> 
1000
(
(0 0 0)
(0 0 0)
(0 0 0)
(0 0 0)
(0 0 0)
(0 0 0)
(0 0 0)
(0 0 0)
(0 0 0)
(0 0 0)
(0 0 0)
(0 0 0)
(0 0 0)
(0 0 0)
(0 0 0)
(0 0 0)
(0 0 0)
(0 0 0)
(0 0 0)
(0 0 0)
(0 0 0)
(0 0 0)
(0 0 0)
(0 0 0)
(0 0 0)
(0 0 0)
(0 0 0)
(0 0 0)
(0 0 0)
(0 0 0)
(0 0 0)
(0 0 0)
(0 0 0)
(0 0 0)
(0 0 0)
(0 0 0)
(0 0 0)
(0 0 0)
(0 0 0)
(0 0 0)
(0 0 0)
(0 0 0)
(0 0 0)
(0 0 0)
(0 0 0)
(0 0 0)
(0 0 0)
(0 0 0)
(0 0 0)
(0 0 0)
(0 0 0)
(0 0 0)
(0 0 0)
(0 0 0)
(0 0 0)
(0 0 0)
(0 0 0)
(0 0 0)
(0 0 0)
(0 0 0)
(0 0 0)
(0 0 0)
(0 0 0)
(0 0 0)
(0 0 0)
(0 3.56813e-18 0)
(0 -1.01907e-05 -1.20883e-19)
(0 -0.00170609 2.66995e-11)
(0 -0.000969809 -4.28865e-12)
(0 -0.000524283 1.76654e-06)
(0 -0.000492793 1.82607e-05)
(0 -0.000446922 1.29381e-05)
(0 -0.000603938 7.88688e-06)
(0 -0.000519646 2.52363e-06)
(0 -0.00052269 7.50836e-07)
(0 -0.000523203 -1.39854e-07)
(0 -0.000550946 -7.16068e-07)
(0 -0.000548853 -1.16695e-06)
(0 -0.000613581 -1.65141e-06)
(0 -0.000465511 -1.45172e-06)
(0 -0.000510221 -1.56513e-06)
(0 -0.000506351 -1.75082e-06)
(0 -0.000501765 -2.09879e-06)
(0 -0.000589258 -2.55745e-06)
(0 -0.000549475 -2.3542e-06)
(0 -0.000440677 -2.0455e-06)
(0 -0.000570367 -2.85619e-06)
(0 -0.000393163 -1.65666e-06)
(0 -0.000424951 -1.71654e-06)
(0 -0.000400319 -1.93735e-06)
(0 -0.000576422 -3.62857e-06)
(0 -0.00044828 -2.95877e-06)
(0 -0.000380549 -2.24891e-06)
(0 -0.000455603 -2.96823e-06)
(0 -0.000472752 -3.5923e-06)
(0 -0.00039338 -3.12667e-06)
(0 -0.00036529 -2.79047e-06)
(0 -0.000339138 -2.52792e-06)
(0 -0.00047955 -5.13041e-06)
(0 -0.000407893 -5.65685e-06)
(0 0 0)
(0 0 0)
(0 0 0)
(0 0 0)
(0 0 0)
(0 0 0)
(0 0 0)
(0 0 0)
(0 0 0)
(0 0 0)
(0 0 0)
(0 0 0)
(0 0 0)
(0 0 0)
(0 0 0)
(0 0 0)
(0 0 0)
(0 0 0)
(0 0 0)
(0 0 0)
(0 0 0)
(0 0 0)
(0 0 0)
(0 0 0)
(0 0 0)
(0 0 0)
(0 0 0)
(0 0 0)
(0 0 0)
(0 0 0)
(0 0 0)
(0 0 0)
(0 0 0)
(0 0 0)
(0 0 0)
(0 0 0)
(0 0 0)
(0 0 0)
(0 0 0)
(0 0 0)
(0 0 0)
(0 0 0)
(0 0 0)
(0 0 0)
(0 0 0)
(0 0 0)
(0 0 0)
(0 0 0)
(0 0 0)
(0 0 0)
(0 0 0)
(0 0 0)
(0 0 0)
(0 0 0)
(0 0 0)
(0 0 0)
(0 0 0)
(0 0 0)
(0 0 0)
(0 0 0)
(0 0 0)
(0 0 0)
(0 0 0)
(0 0 0)
(0 0 0)
(0 0 0)
(0 6.22527e-15 -1.20883e-19)
(0 -0.000440625 2.10576e-07)
(0 -0.00152333 -8.01785e-10)
(0 -0.000819334 1.9919e-05)
(0 -0.000424722 4.34207e-05)
(0 -0.00039165 3.50494e-05)
(0 -0.000369896 1.68965e-05)
(0 -0.000452404 8.50062e-06)
(0 -0.000534232 2.5122e-06)
(0 -0.000604279 -1.25784e-06)
(0 -0.000602248 -3.21296e-06)
(0 -0.000451982 -2.65861e-06)
(0 -0.000530016 -3.9191e-06)
(0 -0.000375731 -3.03499e-06)
(0 -0.000558845 -5.26275e-06)
(0 -0.000494051 -5.21378e-06)
(0 -0.000369207 -4.03557e-06)
(0 -0.000548475 -6.80321e-06)
(0 -0.000544341 -6.78075e-06)
(0 -0.000361237 -4.36074e-06)
(0 -0.000451659 -5.99145e-06)
(0 -0.000471709 -6.1446e-06)
(0 -0.000523782 -6.85025e-06)
(0 -0.000377204 -5.14528e-06)
(0 -0.00035712 -5.07725e-06)
(0 -0.000339133 -4.90861e-06)
(0 -0.000471218 -7.34152e-06)
(0 -0.00052551 -9.16194e-06)
(0 -0.000431779 -7.9013e-06)
(0 -0.000382446 -7.00338e-06)
(0 -0.000440181 -8.35239e-06)
(0 -0.000456695 -8.56977e-06)
(0 -0.00047523 -1.16958e-05)
(0 -0.000385841 -1.16704e-05)
(0 0 0)
(0 0 0)
(0 0 0)
(0 0 0)
(0 0 0)
(0 0 0)
(0 0 0)
(0 0 0)
(0 0 0)
(0 0 0)
(0 0 0)
(0 0 0)
(0 0 0)
(0 0 0)
(0 0 0)
(0 0 0)
(0 0 0)
(0 0 0)
(0 0 0)
(0 0 0)
(0 0 0)
(0 0 0)
(0 0 0)
(0 0 0)
(0 0 0)
(0 0 0)
(0 0 0)
(0 0 0)
(0 0 0)
(0 0 0)
(0 0 0)
(0 0 0)
(0 0 0)
(0 0 0)
(0 0 0)
(0 0 0)
(0 0 0)
(0 0 0)
(0 0 0)
(0 0 0)
(0 0 0)
(0 0 0)
(0 0 0)
(0 0 0)
(0 0 0)
(0 0 0)
(0 0 0)
(0 0 0)
(0 0 0)
(0 0 0)
(0 0 0)
(0 0 0)
(0 0 0)
(0 0 0)
(0 0 0)
(0 0 0)
(0 0 0)
(0 0 0)
(0 0 0)
(0 0 0)
(0 0 0)
(0 0 0)
(0 0 0)
(0 0 0)
(0 0 0)
(0 0 0)
(0 0 0)
(0 7.90692e-15 -1.09017e-16)
(0 -0.000875193 1.57536e-07)
(0 -0.00144818 -7.86396e-10)
(0 -0.000735352 4.35361e-05)
(0 -0.000416728 4.34626e-05)
(0 -0.00047187 2.78368e-05)
(0 -0.000341508 8.57462e-06)
(0 -0.00039665 2.5136e-06)
(0 -0.000367945 -1.0536e-06)
(0 -0.00038743 -3.01966e-06)
(0 -0.000566449 -5.06003e-06)
(0 -0.000426307 -4.30007e-06)
(0 -0.000387969 -4.02174e-06)
(0 -0.000355925 -4.32725e-06)
(0 -0.00035572 -4.88773e-06)
(0 -0.000471442 -6.71924e-06)
(0 -0.000353099 -5.45433e-06)
(0 -0.000401696 -6.26872e-06)
(0 -0.000441376 -6.7273e-06)
(0 -0.00037921 -6.07338e-06)
(0 -0.000345689 -5.82982e-06)
(0 -0.000391877 -6.7298e-06)
(0 -0.000340604 -5.53286e-06)
(0 -0.000537616 -8.63029e-06)
(0 -0.000469405 -7.86529e-06)
(0 -0.000414742 -8.58628e-06)
(0 -0.000431199 -9.94674e-06)
(0 -0.000449352 -1.03557e-05)
(0 -0.000417213 -9.62991e-06)
(0 -0.000321104 -7.27259e-06)
(0 -0.000450761 -1.0814e-05)
(0 -0.000354692 -9.12025e-06)
(0 -0.000316125 -8.9002e-06)
(0 0 0)
(0 0 0)
(0 0 0)
(0 0 0)
(0 0 0)
(0 0 0)
(0 0 0)
(0 0 0)
(0 0 0)
(0 0 0)
(0 0 0)
(0 0 0)
(0 0 0)
(0 0 0)
(0 0 0)
(0 0 0)
(0 0 0)
(0 0 0)
(0 0 0)
(0 0 0)
(0 0 0)
(0 0 0)
(0 0 0)
(0 0 0)
(0 0 0)
(0 0 0)
(0 0 0)
(0 0 0)
(0 0 0)
(0 0 0)
(0 0 0)
(0 0 0)
(0 0 0)
(0 0 0)
(0 0 0)
(0 0 0)
(0 0 0)
(0 0 0)
(0 0 0)
(0 0 0)
(0 0 0)
(0 0 0)
(0 0 0)
(0 0 0)
(0 0 0)
(0 0 0)
(0 0 0)
(0 0 0)
(0 0 0)
(0 0 0)
(0 0 0)
(0 0 0)
(0 0 0)
(0 0 0)
(0 0 0)
(0 0 0)
(0 0 0)
(0 0 0)
(0 0 0)
(0 0 0)
(0 0 0)
(0 0 0)
(0 0 0)
(0 0 0)
(0 0 0)
(0 0 0)
(0 0 0)
(0 1.76052e-15 0)
(0 -0.000299743 -2.06366e-16)
(0 -0.00159192 2.15509e-10)
(0 -0.000885349 2.81741e-07)
(0 -0.000503938 9.23218e-06)
(0 -0.000439898 9.85014e-06)
(0 -0.000538558 6.38173e-06)
(0 -0.000364725 2.07834e-06)
(0 -0.000466962 -2.35098e-07)
(0 -0.000354542 -1.69352e-06)
(0 -0.000499487 -4.90655e-06)
(0 -0.000472143 -5.03347e-06)
(0 -0.000446983 -5.05288e-06)
(0 -0.000528254 -6.7838e-06)
(0 -0.000401653 -5.8438e-06)
(0 -0.000381893 -6.17355e-06)
(0 -0.000398206 -6.22466e-06)
(0 -0.000416196 -6.47729e-06)
(0 -0.000346002 -5.44178e-06)
(0 -0.000375479 -5.77634e-06)
(0 -0.000342591 -5.40926e-06)
(0 -0.000355022 -5.52752e-06)
(0 -0.00038573 -5.88565e-06)
(0 -0.000500696 -9.0991e-06)
(0 -0.000528284 -1.07494e-05)
(0 -0.000327625 -7.20739e-06)
(0 -0.000352804 -8.28096e-06)
(0 -0.000424999 -1.06404e-05)
(0 -0.000343256 -8.50544e-06)
(0 -0.000492364 -1.22205e-05)
(0 -0.000402506 -1.06163e-05)
(0 -0.000416831 -9.96457e-06)
(0 -0.000316042 -6.23202e-06)
(0 0 0)
(0 0 0)
(0 0 0)
(0 0 0)
(0 0 0)
(0 0 0)
(0 0 0)
(0 0 0)
(0 0 0)
(0 0 0)
(0 0 0)
(0 0 0)
(0 0 0)
(0 0 0)
(0 0 0)
(0 0 0)
(0 0 0)
(0 0 0)
(0 0 0)
(0 0 0)
(0 0 0)
(0 0 0)
(0 0 0)
(0 0 0)
(0 0 0)
(0 0 0)
(0 0 0)
(0 0 0)
(0 0 0)
(0 0 0)
(0 0 0)
(0 0 0)
(0 0 0)
(0 0 0)
(0 0 0)
(0 0 0)
(0 0 0)
(0 0 0)
(0 0 0)
(0 0 0)
(0 0 0)
(0 0 0)
(0 0 0)
(0 0 0)
(0 0 0)
(0 0 0)
(0 0 0)
(0 0 0)
(0 0 0)
(0 0 0)
(0 0 0)
(0 0 0)
(0 0 0)
(0 0 0)
(0 0 0)
(0 0 0)
(0 0 0)
(0 0 0)
(0 0 0)
(0 0 0)
(0 0 0)
(0 0 0)
(0 0 0)
(0 0 0)
(0 0 0)
(0 0 0)
(0 0 0)
(0 1.27003e-17 0)
(0 -1.46623e-05 -4.64685e-17)
(0 -0.00151764 9.53049e-10)
(0 -0.000835353 2.39565e-07)
(0 -0.000439038 2.65108e-06)
(0 -0.000374373 4.44079e-06)
(0 -0.000422319 4.36238e-06)
(0 -0.000500199 3.72123e-06)
(0 -0.000408424 8.9065e-07)
(0 -0.00056952 -1.02109e-06)
(0 -0.000373651 -2.80208e-06)
(0 -0.000569791 -5.60802e-06)
(0 -0.000533214 -6.11295e-06)
(0 -0.000406455 -4.98046e-06)
(0 -0.000387727 -5.21119e-06)
(0 -0.000370052 -5.38207e-06)
(0 -0.000528068 -8.19435e-06)
(0 -0.000559646 -8.84788e-06)
(0 -0.000463706 -7.09758e-06)
(0 -0.000551398 -8.61215e-06)
(0 -0.000373718 -5.76458e-06)
(0 -0.00050756 -8.11445e-06)
(0 -0.000502354 -8.27263e-06)
(0 -0.000363052 -6.54087e-06)
(0 -0.000330664 -6.45687e-06)
(0 -0.000341923 -6.68692e-06)
(0 -0.000408504 -8.82969e-06)
(0 -0.000365046 -8.84984e-06)
(0 -0.000418543 -1.03664e-05)
(0 -0.00033741 -8.52233e-06)
(0 -0.000347134 -8.65239e-06)
(0 -0.000418976 -9.65159e-06)
(0 -0.000461176 -8.82233e-06)
(0 0 0)
(0 0 0)
(0 0 0)
(0 0 0)
(0 0 0)
(0 0 0)
(0 0 0)
(0 0 0)
(0 0 0)
(0 0 0)
(0 0 0)
(0 0 0)
(0 0 0)
(0 0 0)
(0 0 0)
(0 0 0)
(0 0 0)
(0 0 0)
(0 0 0)
(0 0 0)
(0 0 0)
(0 0 0)
(0 0 0)
(0 0 0)
(0 0 0)
(0 0 0)
(0 0 0)
(0 0 0)
(0 0 0)
(0 0 0)
(0 0 0)
(0 0 0)
(0 0 0)
(0 0 0)
(0 0 0)
(0 0 0)
(0 0 0)
(0 0 0)
(0 0 0)
(0 0 0)
(0 0 0)
(0 0 0)
(0 0 0)
(0 0 0)
(0 0 0)
(0 0 0)
(0 0 0)
(0 0 0)
(0 0 0)
(0 0 0)
(0 0 0)
(0 0 0)
(0 0 0)
(0 0 0)
(0 0 0)
(0 0 0)
(0 0 0)
(0 0 0)
(0 0 0)
(0 0 0)
(0 0 0)
(0 0 0)
(0 0 0)
(0 0 0)
(0 0 0)
(0 0 0)
(0 0 0)
(0 2.9821e-18 0)
(0 -8.84179e-06 -4.97272e-19)
(0 -0.00160679 3.58928e-11)
(0 -0.000895764 2.10997e-08)
(0 -0.00048553 2.20131e-06)
(0 -0.00039218 5.48215e-06)
(0 -0.00055085 7.43238e-06)
(0 -0.000444 4.02431e-06)
(0 -0.000470021 1.26721e-06)
(0 -0.000527447 -1.28917e-06)
(0 -0.000385394 -2.55957e-06)
(0 -0.000496247 -5.0884e-06)
(0 -0.00036775 -4.06935e-06)
(0 -0.0005605 -6.59861e-06)
(0 -0.000350835 -4.03816e-06)
(0 -0.000350115 -4.21203e-06)
(0 -0.000364348 -5.25478e-06)
(0 -0.000417073 -6.56193e-06)
(0 -0.000460728 -7.44793e-06)
(0 -0.000392996 -6.46691e-06)
(0 -0.000390442 -6.07917e-06)
(0 -0.000370236 -6.13779e-06)
(0 -0.000425083 -7.32969e-06)
(0 -0.000445026 -7.2183e-06)
(0 -0.000417956 -7.03125e-06)
(0 -0.000435906 -8.12106e-06)
(0 -0.000369411 -7.6192e-06)
(0 -0.000333274 -7.3394e-06)
(0 -0.000315181 -7.06991e-06)
(0 -0.000391122 -8.41999e-06)
(0 -0.000384165 -8.17507e-06)
(0 -0.00047461 -1.10031e-05)
(0 -0.000461043 -1.20948e-05)
(0 0 0)
(0 0 0)
(0 0 0)
(0 0 0)
(0 0 0)
(0 0 0)
(0 0 0)
(0 0 0)
(0 0 0)
(0 0 0)
(0 0 0)
(0 0 0)
(0 0 0)
(0 0 0)
(0 0 0)
(0 0 0)
(0 0 0)
(0 0 0)
(0 0 0)
(0 0 0)
(0 0 0)
(0 0 0)
(0 0 0)
(0 0 0)
(0 0 0)
(0 0 0)
(0 0 0)
(0 0 0)
(0 0 0)
(0 0 0)
(0 0 0)
(0 0 0)
(0 0 0)
(0 0 0)
(0 0 0)
(0 0 0)
(0 0 0)
(0 0 0)
(0 0 0)
(0 0 0)
(0 0 0)
(0 0 0)
(0 0 0)
(0 0 0)
(0 0 0)
(0 0 0)
(0 0 0)
(0 0 0)
(0 0 0)
(0 0 0)
(0 0 0)
(0 0 0)
(0 0 0)
(0 0 0)
(0 0 0)
(0 0 0)
(0 0 0)
(0 0 0)
(0 0 0)
(0 0 0)
(0 0 0)
(0 0 0)
(0 0 0)
(0 0 0)
(0 0 0)
(0 0 0)
(0 0 0)
(0 3.94795e-22 0)
(0 -1.26156e-07 -9.92006e-20)
(0 -0.00177674 2.12567e-10)
(0 -0.00102118 -2.68102e-08)
(0 -0.000518937 9.02167e-07)
(0 -0.00043729 5.90519e-06)
(0 -0.000435527 6.18073e-06)
(0 -0.000555253 4.5152e-06)
(0 -0.000369945 8.97083e-07)
(0 -0.000564054 -2.38436e-06)
(0 -0.000386643 -2.83141e-06)
(0 -0.000386294 -3.98051e-06)
(0 -0.000497771 -5.24214e-06)
(0 -0.00040277 -5.107e-06)
(0 -0.000494526 -6.04059e-06)
(0 -0.00055634 -7.44597e-06)
(0 -0.000361785 -5.02626e-06)
(0 -0.000360253 -5.25113e-06)
(0 -0.000344131 -5.38279e-06)
(0 -0.000342618 -5.14836e-06)
(0 -0.000371526 -5.39829e-06)
(0 -0.000353393 -5.11155e-06)
(0 -0.000351056 -5.34716e-06)
(0 -0.000499451 -7.75172e-06)
(0 -0.000440334 -7.58915e-06)
(0 -0.000341555 -6.41801e-06)
(0 -0.000352767 -6.66511e-06)
(0 -0.00034802 -7.04329e-06)
(0 -0.000375921 -7.65602e-06)
(0 -0.000388107 -8.15154e-06)
(0 -0.000380497 -7.91101e-06)
(0 -0.000372709 -8.79859e-06)
(0 -0.000346465 -9.35519e-06)
(0 0 0)
(0 0 0)
(0 0 0)
(0 0 0)
(0 0 0)
(0 0 0)
(0 0 0)
(0 0 0)
(0 0 0)
(0 0 0)
(0 0 0)
(0 0 0)
(0 0 0)
(0 0 0)
(0 0 0)
(0 0 0)
(0 0 0)
(0 0 0)
(0 0 0)
(0 0 0)
(0 0 0)
(0 0 0)
(0 0 0)
(0 0 0)
(0 0 0)
(0 0 0)
(0 0 0)
(0 0 0)
(0 0 0)
(0 0 0)
(0 0 0)
(0 0 0)
(0 0 0)
(0 0 0)
(0 0 0)
(0 0 0)
(0 0 0)
(0 0 0)
(0 0 0)
(0 0 0)
(0 0 0)
(0 0 0)
(0 0 0)
(0 0 0)
(0 0 0)
(0 0 0)
(0 0 0)
(0 0 0)
(0 0 0)
(0 0 0)
(0 0 0)
(0 0 0)
(0 0 0)
(0 0 0)
(0 0 0)
(0 0 0)
(0 0 0)
(0 0 0)
(0 0 0)
(0 0 0)
(0 0 0)
(0 0 0)
(0 0 0)
(0 0 0)
(0 0 0)
(0 0 0)
(0 0 0)
(0 4.9042e-20 0)
(0 -1.51829e-06 -1.59637e-21)
(0 -0.00173707 -1.72423e-11)
(0 -0.000990471 -4.73078e-08)
(0 -0.00054936 6.89033e-07)
(0 -0.000498307 1.29425e-05)
(0 -0.000396152 7.8445e-06)
(0 -0.000495138 4.58832e-06)
(0 -0.000498315 1.41836e-06)
(0 -0.000371631 -1.35335e-06)
(0 -0.000388827 -2.32435e-06)
(0 -0.000372046 -3.03684e-06)
(0 -0.000567208 -5.56878e-06)
(0 -0.000370697 -4.14182e-06)
(0 -0.000529736 -6.61764e-06)
(0 -0.000353321 -4.82527e-06)
(0 -0.000443819 -5.67838e-06)
(0 -0.000523951 -6.81909e-06)
(0 -0.000363605 -4.62411e-06)
(0 -0.000461057 -5.87353e-06)
(0 -0.000457881 -5.98997e-06)
(0 -0.000480759 -6.26613e-06)
(0 -0.000505825 -7.39991e-06)
(0 -0.000534303 -8.0179e-06)
(0 -0.000362563 -5.64518e-06)
(0 -0.000343803 -5.30475e-06)
(0 -0.000487237 -8.32672e-06)
(0 -0.000335514 -6.08357e-06)
(0 -0.000398883 -8.00189e-06)
(0 -0.000437314 -9.62508e-06)
(0 -0.000485224 -1.0409e-05)
(0 -0.000474633 -1.13106e-05)
(0 -0.000407722 -1.0342e-05)
(0 0 0)
(0 0 0)
(0 0 0)
(0 0 0)
(0 0 0)
(0 0 0)
(0 0 0)
(0 0 0)
(0 0 0)
(0 0 0)
(0 0 0)
(0 0 0)
(0 0 0)
(0 0 0)
(0 0 0)
(0 0 0)
(0 0 0)
(0 0 0)
(0 0 0)
(0 0 0)
(0 0 0)
(0 0 0)
(0 0 0)
(0 0 0)
(0 0 0)
(0 0 0)
(0 0 0)
(0 0 0)
(0 0 0)
(0 0 0)
(0 0 0)
(0 0 0)
(0 0 0)
(0 0 0)
(0 0 0)
(0 0 0)
(0 0 0)
(0 0 0)
(0 0 0)
(0 0 0)
(0 0 0)
(0 0 0)
(0 0 0)
(0 0 0)
(0 0 0)
(0 0 0)
(0 0 0)
(0 0 0)
(0 0 0)
(0 0 0)
(0 0 0)
(0 0 0)
(0 0 0)
(0 0 0)
(0 0 0)
(0 0 0)
(0 0 0)
(0 0 0)
(0 0 0)
(0 0 0)
(0 0 0)
(0 0 0)
(0 0 0)
(0 0 0)
(0 0 0)
(0 0 0)
(0 0 0)
(0 1.59625e-29 0)
(0 -2.69656e-11 -1.58096e-21)
(0 -0.00196561 2.51745e-09)
(0 -0.00117374 9.77178e-08)
(0 -0.00060162 6.33903e-06)
(0 -0.000369413 1.67882e-05)
(0 -0.000407418 1.56454e-05)
(0 -0.000418949 6.71503e-06)
(0 -0.000557306 1.40025e-06)
(0 -0.000464398 -1.7837e-06)
(0 -0.00043848 -2.18409e-06)
(0 -0.000396454 -2.47152e-06)
(0 -0.000517943 -4.5895e-06)
(0 -0.000414279 -3.9766e-06)
(0 -0.00037634 -3.81007e-06)
(0 -0.00034483 -3.65885e-06)
(0 -0.000433295 -4.66012e-06)
(0 -0.000357485 -3.84077e-06)
(0 -0.000409123 -4.13329e-06)
(0 -0.000407064 -4.5062e-06)
(0 -0.000385657 -4.48144e-06)
(0 -0.000534997 -7.17178e-06)
(0 -0.00033296 -4.85873e-06)
(0 -0.00052658 -7.54801e-06)
(0 -0.000374144 -4.72926e-06)
(0 -0.000431473 -5.81005e-06)
(0 -0.000334473 -5.32585e-06)
(0 -0.000330214 -5.06831e-06)
(0 -0.000340066 -6.30966e-06)
(0 -0.000319943 -6.85853e-06)
(0 -0.000423754 -8.97929e-06)
(0 -0.000338064 -7.59683e-06)
(0 -0.000364616 -9.04611e-06)
(0 0 0)
(0 0 0)
(0 0 0)
(0 0 0)
(0 0 0)
(0 0 0)
(0 0 0)
(0 0 0)
(0 0 0)
(0 0 0)
(0 0 0)
(0 0 0)
(0 0 0)
(0 0 0)
(0 0 0)
(0 0 0)
(0 0 0)
(0 0 0)
(0 0 0)
(0 0 0)
(0 0 0)
(0 0 0)
(0 0 0)
(0 0 0)
(0 0 0)
(0 0 0)
(0 0 0)
(0 0 0)
(0 0 0)
(0 0 0)
(0 0 0)
(0 0 0)
(0 0 0)
(0 0 0)
(0 0 0)
(0 0 0)
(0 0 0)
(0 0 0)
(0 0 0)
(0 0 0)
(0 0 0)
(0 0 0)
(0 0 0)
(0 0 0)
(0 0 0)
(0 0 0)
(0 0 0)
(0 0 0)
(0 0 0)
(0 0 0)
(0 0 0)
(0 0 0)
(0 0 0)
(0 0 0)
(0 0 0)
(0 0 0)
(0 0 0)
(0 0 0)
(0 0 0)
(0 0 0)
(0 0 0)
(0 0 0)
(0 0 0)
(0 0 0)
(0 0 0)
(0 0 0)
(0 0 0)
(0 0 0)
(0 4.97286e-21 -4.4819e-31)
(0 -3.83758e-07 5.76432e-13)
(0 -0.0017981 1.57689e-07)
(0 -0.00103474 9.4198e-07)
(0 -0.000524801 2.75972e-05)
(0 -0.000376531 1.84397e-05)
(0 -0.000408205 6.57539e-06)
(0 -0.000357801 6.74211e-07)
(0 -0.000304357 -1.04539e-06)
(0 -0.000405412 -1.36272e-06)
(0 -0.000406987 -1.43432e-06)
(0 -0.000368283 -1.92495e-06)
(0 -0.000322136 -1.80668e-06)
(0 -0.000435578 -2.15115e-06)
(0 -0.000310121 -1.69501e-06)
(0 -0.000354318 -2.05925e-06)
(0 -0.000391528 -2.04547e-06)
(0 -0.000391418 -2.07957e-06)
(0 -0.000354239 -2.0982e-06)
(0 -0.000412497 -2.5024e-06)
(0 -0.000323538 -2.56023e-06)
(0 -0.000323297 -2.47615e-06)
(0 -0.000411647 -3.20741e-06)
(0 -0.000492539 -3.18013e-06)
(0 -0.000369013 -2.8009e-06)
(0 -0.00033404 -2.69777e-06)
(0 -0.000428407 -3.21493e-06)
(0 -0.000329538 -3.07054e-06)
(0 -0.000312432 -3.29431e-06)
(0 -0.000472325 -4.89498e-06)
(0 -0.000439086 -4.35493e-06)
(0 -0.00038514 -4.38522e-06)
)
;

boundaryField
{
    inlet
    {
        type            fixedValue;
        value           uniform (0 -0.0005 0);
    }
    outlet
    {
        type            fluxCorrectedVelocity;
        phi             phi.water;
        rho             rho.water;
        value           uniform (0 0 0);
    }
    walls
    {
        type            fixedValue;
        value           uniform (0 0 0);
    }
}


// ************************************************************************* //
