/*--------------------------------*- C++ -*----------------------------------*\
| =========                 |                                                 |
| \\      /  F ield         | foam-extend: Open Source CFD                    |
|  \\    /   O peration     | Version:     5.0                                |
|   \\  /    A nd           | Web:         http://www.foam-extend.org         |
|    \\/     M anipulation  |                                                 |
\*---------------------------------------------------------------------------*/
FoamFile
{
    version     2.0;
    format      ascii;
    class       volVectorField;
    location    "6";
    object      U.gas;
}
// * * * * * * * * * * * * * * * * * * * * * * * * * * * * * * * * * * * * * //

dimensions      [0 1 -1 0 0 0 0];

internalField   nonuniform List<vector> 
100
(
(0.000100655 0 0)
(0.000225276 0 0)
(0.000341961 0 0)
(0.000454807 0 0)
(0.000565501 0 0)
(0.000676788 0 0)
(0.000787126 0 0)
(0.000896286 0 0)
(0.00100686 0 0)
(0.00111784 0 0)
(0.00123103 0 0)
(0.00134333 0 0)
(0.00145621 0 0)
(0.00157302 0 0)
(0.00169332 0 0)
(0.0018152 0 0)
(0.00194096 0 0)
(0.00207382 0 0)
(0.00221652 0 0)
(0.00236649 0 0)
(0.00252889 0 0)
(0.00271894 0 0)
(0.00293416 0 0)
(0.00320732 0 0)
(0.00356598 0 0)
(0.00410368 0 0)
(0.00498154 0 0)
(0.00622255 0 0)
(0.00641914 0 0)
(0.00584264 0 0)
(0.00559562 0 0)
(0.00544413 0 0)
(0.00537805 0 0)
(0.00540935 0 0)
(0.00538921 0 0)
(0.00537662 0 0)
(0.00531346 0 0)
(0.00532893 0 0)
(0.00533936 0 0)
(0.00530543 0 0)
(0.00524402 0 0)
(0.00527726 0 0)
(0.00536614 0 0)
(0.00537909 0 0)
(0.00535833 0 0)
(0.00529229 0 0)
(0.00530954 0 0)
(0.00530706 0 0)
(0.00532366 0 0)
(0.00540333 0 0)
(0.00548732 0 0)
(0.00553408 0 0)
(0.00550284 0 0)
(0.00552417 0 0)
(0.00548946 0 0)
(0.00546344 0 0)
(0.00552624 0 0)
(0.00549637 0 0)
(0.00546307 0 0)
(0.00550945 0 0)
(0.00555376 0 0)
(0.00548971 0 0)
(0.00547678 0 0)
(0.00548816 0 0)
(0.00537737 0 0)
(0.00529675 0 0)
(0.00529678 0 0)
(0.00529589 0 0)
(0.00535997 0 0)
(0.00537617 0 0)
(0.00534429 0 0)
(0.00540895 0 0)
(0.00539334 0 0)
(0.00531419 0 0)
(0.00523399 0 0)
(0.00521759 0 0)
(0.00523442 0 0)
(0.0052196 0 0)
(0.00528448 0 0)
(0.00533234 0 0)
(0.00533236 0 0)
(0.00534736 0 0)
(0.00529849 0 0)
(0.00526657 0 0)
(0.00529932 0 0)
(0.00524689 0 0)
(0.00520325 0 0)
(0.00521877 0 0)
(0.00521915 0 0)
(0.00522008 0 0)
(0.00520362 0 0)
(0.00514031 0 0)
(0.00502857 0 0)
(0.00496629 0 0)
(0.00498218 0 0)
(0.00498385 0 0)
(0.00504869 0 0)
(0.00514363 0 0)
(0.00519476 0 0)
(0.0053375 0 0)
)
;

boundaryField
{
    inlet
    {
        type            fixedValue;
        value           uniform (0 0 0);
    }
    outlet
    {
        type            zeroGradient;
    }
    yzfaces
    {
        type            empty;
    }
}


// ************************************************************************* //
