/*--------------------------------*- C++ -*----------------------------------*\
| =========                 |                                                 |
| \\      /  F ield         | foam-extend: Open Source CFD                    |
|  \\    /   O peration     | Version:     5.0                                |
|   \\  /    A nd           | Web:         http://www.foam-extend.org         |
|    \\/     M anipulation  |                                                 |
\*---------------------------------------------------------------------------*/
FoamFile
{
    version     2.0;
    format      ascii;
    class       surfaceScalarField;
    location    "5";
    object      phi;
}
// * * * * * * * * * * * * * * * * * * * * * * * * * * * * * * * * * * * * * //

dimensions      [0 3 -1 0 0 0 0];

internalField   nonuniform List<scalar> 
99
(
1.22846e-06
1.22461e-06
1.2322e-06
1.23543e-06
1.24008e-06
1.23773e-06
1.23979e-06
1.2377e-06
1.23564e-06
1.23292e-06
1.24239e-06
1.24199e-06
1.24132e-06
1.24121e-06
1.2412e-06
1.24206e-06
1.2406e-06
1.24278e-06
1.23761e-06
1.24498e-06
1.24093e-06
1.23806e-06
1.23675e-06
1.23609e-06
1.23405e-06
1.23573e-06
1.23659e-06
1.23515e-06
1.23667e-06
1.23594e-06
1.24117e-06
1.24249e-06
1.23771e-06
1.23911e-06
1.24205e-06
1.2404e-06
1.24414e-06
1.24508e-06
1.23997e-06
1.24417e-06
1.2397e-06
1.24584e-06
1.24153e-06
1.24264e-06
1.2419e-06
1.24299e-06
1.24268e-06
1.24457e-06
1.2427e-06
1.24469e-06
1.24402e-06
1.24465e-06
1.24504e-06
1.24375e-06
1.24509e-06
1.24656e-06
1.24441e-06
1.24413e-06
1.24435e-06
1.24495e-06
1.24525e-06
1.24533e-06
1.24429e-06
1.24498e-06
1.24448e-06
1.24342e-06
1.24387e-06
1.24498e-06
1.24387e-06
1.24422e-06
1.24559e-06
1.24494e-06
1.2448e-06
1.24438e-06
1.2475e-06
1.24701e-06
1.24472e-06
1.24608e-06
1.24557e-06
1.24571e-06
1.24592e-06
1.24615e-06
1.24487e-06
1.24742e-06
1.24403e-06
1.24322e-06
1.24576e-06
1.24312e-06
1.24466e-06
1.24475e-06
1.24595e-06
1.24476e-06
1.24627e-06
1.24593e-06
1.24459e-06
1.24493e-06
1.24608e-06
1.24532e-06
1.24502e-06
)
;

boundaryField
{
    inlet
    {
        type            calculated;
        value           uniform -1.225e-06;
    }
    outlet
    {
        type            calculated;
        value           uniform 1.24611e-06;
    }
    yzfaces
    {
        type            empty;
    }
}


// ************************************************************************* //
