/*--------------------------------*- C++ -*----------------------------------*\
| =========                 |                                                 |
| \\      /  F ield         | foam-extend: Open Source CFD                    |
|  \\    /   O peration     | Version:     5.0                                |
|   \\  /    A nd           | Web:         http://www.foam-extend.org         |
|    \\/     M anipulation  |                                                 |
\*---------------------------------------------------------------------------*/
FoamFile
{
    version     2.0;
    format      ascii;
    class       volScalarField;
    location    "5";
    object      YH2O;
}
// * * * * * * * * * * * * * * * * * * * * * * * * * * * * * * * * * * * * * //

dimensions      [0 0 0 0 0 0 0];

internalField   nonuniform List<scalar> 
100
(
0.0034015
-0.00200157
0.00220645
-0.00339723
-0.00372506
0.00154239
0.00118073
-0.00170717
0.00215991
-0.000615136
-0.000168151
0.00129121
0.000428699
0.00199403
-0.0034826
-0.00154381
-0.00296589
-0.000622196
-0.000890607
-0.000533469
0.000495524
-0.000171272
0.00140276
-0.00277159
0.00136556
7.90399e-05
0.0013542
0.00200156
0.00211605
-0.00118068
0.00278867
-0.00242311
0.000258177
-0.00136931
-0.00171581
0.0001243
-0.00167609
0.000351282
-0.00206396
-0.000571577
-0.00316181
-0.00113114
-0.00133626
-5.73245e-05
-0.000283014
0.000711703
0.00105363
0.000931325
0.000109559
0.000553278
0.00054311
0.00230645
0.000302565
0.00126886
-0.000296723
0.00134036
0.000331505
0.000323077
0.000864112
-0.000411914
-5.8255e-06
-0.00154936
-0.000238181
-0.00100229
0.000390886
-6.20804e-05
0.00195128
0.00146351
-0.00149365
0.00293752
-0.00345439
0.00511908
-0.00491617
0.0059046
-0.00705811
0.00674125
-0.0086687
0.00937774
-0.0121985
0.0127811
-0.0156215
0.0156728
-0.0187957
0.0184974
-0.0202137
0.0203681
-0.0211511
0.0220844
-0.0209824
0.0218144
-0.018472
0.0218002
-0.0138965
0.0232024
-0.00501532
0.0272185
0.00781636
0.0363971
0.0252448
0.053042
)
;

boundaryField
{
    inlet
    {
        type            calculated;
        value           uniform 0;
    }
    outlet
    {
        type            calculated;
        value           uniform 0.053042;
    }
    yzfaces
    {
        type            empty;
    }
}


// ************************************************************************* //
