/*--------------------------------*- C++ -*----------------------------------*\
| =========                 |                                                 |
| \\      /  F ield         | foam-extend: Open Source CFD                    |
|  \\    /   O peration     | Version:     5.0                                |
|   \\  /    A nd           | Web:         http://www.foam-extend.org         |
|    \\/     M anipulation  |                                                 |
\*---------------------------------------------------------------------------*/
FoamFile
{
    version     2.0;
    format      ascii;
    class       volScalarField;
    location    "8";
    object      alpha.gas;
}
// * * * * * * * * * * * * * * * * * * * * * * * * * * * * * * * * * * * * * //

dimensions      [0 0 0 0 0 0 0];

internalField   nonuniform List<scalar> 
100
(
0.0902953
0.0888966
0.0877038
0.0864874
0.0852446
0.0839667
0.0828176
0.0815831
0.0805199
0.0794975
0.0784083
0.077401
0.0764174
0.07542
0.0743958
0.0734079
0.0725041
0.0716541
0.0707657
0.0698887
0.0689926
0.0681115
0.0673352
0.0665685
0.0657931
0.0650767
0.0643213
0.0636715
0.0629778
0.0623837
0.0616868
0.0610961
0.0603972
0.0597864
0.0591788
0.0586035
0.0580955
0.0574891
0.0569336
0.056422
0.0559417
0.0554459
0.0549836
0.0545403
0.0540913
0.0535935
0.0531553
0.0527463
0.0523307
0.0519019
0.0514449
0.0510257
0.0506445
0.0502636
0.0499466
0.049494
0.0491314
0.0487758
0.0484807
0.0480803
0.0477354
0.0474426
0.0471314
0.04679
0.04647
0.0461651
0.0458146
0.0454605
0.0451869
0.0448762
0.0446236
0.0443604
0.0440843
0.0437912
0.0435067
0.0432345
0.0429643
0.0427035
0.0424561
0.0422258
0.0419484
0.041701
0.0414682
0.0412481
0.0410124
0.0407753
0.0405368
0.0402918
0.0400598
0.0398529
0.0396207
0.0394063
0.0391851
0.038967
0.0387637
0.0386013
0.038398
0.0382138
0.0380998
0.0380352
)
;

boundaryField
{
    inlet
    {
        type            fixedValue;
        value           uniform 0.2;
    }
    outlet
    {
        type            zeroGradient;
    }
    yzfaces
    {
        type            empty;
    }
}


// ************************************************************************* //
