/*--------------------------------*- C++ -*----------------------------------*\
| =========                 |                                                 |
| \\      /  F ield         | foam-extend: Open Source CFD                    |
|  \\    /   O peration     | Version:     5.0                                |
|   \\  /    A nd           | Web:         http://www.foam-extend.org         |
|    \\/     M anipulation  |                                                 |
\*---------------------------------------------------------------------------*/
FoamFile
{
    version     2.0;
    format      ascii;
    class       volScalarField;
    location    "8";
    object      YH2O;
}
// * * * * * * * * * * * * * * * * * * * * * * * * * * * * * * * * * * * * * //

dimensions      [0 0 0 0 0 0 0];

internalField   nonuniform List<scalar> 
100
(
-0.00346621
0.00329912
-0.000279745
0.002794
0.000800243
0.00321049
-0.000896314
0.000762865
0.00207779
0.0020339
-0.00144108
0.0016702
-0.00125857
0.00363666
0.00122395
0.000506146
0.00187959
0.0029343
-0.00115794
0.00301005
-0.00433003
0.00526817
-0.0060895
0.011636
-0.010795
0.0115891
-0.0122429
0.010796
-0.0099927
0.0111258
-0.01246
0.0153366
-0.0143049
0.0172408
-0.0140295
0.0163821
-0.0126105
0.0114266
-0.00979239
0.00894063
-0.00900353
0.00734659
-0.00511966
0.00583388
-0.00500562
0.000330524
-0.00332242
-0.00158626
-0.0030644
-0.000916755
-0.00217895
-0.00212549
-0.00246058
-0.00156402
-0.00110798
-0.00331296
-0.000914916
-0.00162386
-0.00176448
-0.00138538
-0.00293924
-0.00139224
-0.0019437
-0.000204264
-0.00291264
-0.000664776
-0.000141915
-0.000446932
0.000566288
-0.00137747
0.00169485
-0.00221265
0.00257011
-0.00305958
0.00113879
-0.00149825
-0.000828251
-0.000677206
6.2273e-05
-0.00192111
0.00128595
-0.00139192
0.00210177
-0.00167347
-1.3531e-05
0.000898789
0.00062621
-0.000627595
-0.00116995
0.001009
-0.00107663
0.000709611
5.33869e-06
-0.00137405
-0.000523267
-0.00132214
-0.000845738
-0.00160361
-0.00101288
-0.000849739
)
;

boundaryField
{
    inlet
    {
        type            calculated;
        value           uniform 0;
    }
    outlet
    {
        type            calculated;
        value           uniform -0.000849739;
    }
    yzfaces
    {
        type            empty;
    }
}


// ************************************************************************* //
