/*--------------------------------*- C++ -*----------------------------------*\
| =========                 |                                                 |
| \\      /  F ield         | foam-extend: Open Source CFD                    |
|  \\    /   O peration     | Version:     5.0                                |
|   \\  /    A nd           | Web:         http://www.foam-extend.org         |
|    \\/     M anipulation  |                                                 |
\*---------------------------------------------------------------------------*/
FoamFile
{
    version     2.0;
    format      ascii;
    class       volScalarField;
    location    "3";
    object      alpha.water;
}
// * * * * * * * * * * * * * * * * * * * * * * * * * * * * * * * * * * * * * //

dimensions      [0 0 0 0 0 0 0];

internalField   nonuniform List<scalar> 
100
(
0.199654
0.199435
0.199225
0.199013
0.198791
0.198553
0.198284
0.197961
0.197537
0.19689
0.195675
0.192591
0.18273
0.159868
0.131497
0.104801
0.0810299
0.0614682
0.0454917
0.0329448
0.0239217
0.0180265
0.0141436
0.0120229
0.0110252
0.0104878
0.0102054
0.0102169
0.0101504
0.0100491
0.00995822
0.00991774
0.00990784
0.00994028
0.00985215
0.0098948
0.00985579
0.0097742
0.00986711
0.0099619
0.00993158
0.0100079
0.0100265
0.00998331
0.00997886
0.00987268
0.00989595
0.00996144
0.0100287
0.00997534
0.0100126
0.00994685
0.00996586
0.010053
0.0100711
0.0100762
0.0100095
0.0101012
0.0101018
0.0101122
0.010141
0.0100731
0.0100485
0.0101023
0.0100376
0.0100219
0.00998236
0.00998691
0.00995507
0.00990724
0.00994808
0.00994225
0.00994295
0.0099471
0.00988428
0.00991992
0.00996652
0.0098822
0.00992073
0.00981939
0.00991489
0.00992753
0.00994455
0.0100043
0.0100456
0.010062
0.0100788
0.0100648
0.0100436
0.00991603
0.00996177
0.00996903
0.0100302
0.0100451
0.0100099
0.0101785
0.0101874
0.0102532
0.0103143
0.0106919
)
;

boundaryField
{
    inlet
    {
        type            fixedValue;
        value           uniform 0.2;
    }
    outlet
    {
        type            zeroGradient;
    }
    yzfaces
    {
        type            empty;
    }
}


// ************************************************************************* //
