/*--------------------------------*- C++ -*----------------------------------*\
| =========                 |                                                 |
| \\      /  F ield         | foam-extend: Open Source CFD                    |
|  \\    /   O peration     | Version:     5.0                                |
|   \\  /    A nd           | Web:         http://www.foam-extend.org         |
|    \\/     M anipulation  |                                                 |
\*---------------------------------------------------------------------------*/
FoamFile
{
    version     2.0;
    format      ascii;
    class       volScalarField;
    location    "3";
    object      S.water;
}
// * * * * * * * * * * * * * * * * * * * * * * * * * * * * * * * * * * * * * //

dimensions      [0 0 0 0 0 0 0];

internalField   nonuniform List<scalar> 
100
(
0.99827
0.997177
0.996126
0.995063
0.993957
0.992765
0.991421
0.989806
0.987683
0.984452
0.978373
0.962953
0.913649
0.799339
0.657485
0.524003
0.40515
0.307341
0.227459
0.164724
0.119609
0.0901327
0.0707181
0.0601147
0.055126
0.0524389
0.0510271
0.0510844
0.0507522
0.0502455
0.0497911
0.0495887
0.0495392
0.0497014
0.0492607
0.049474
0.049279
0.048871
0.0493356
0.0498095
0.0496579
0.0500393
0.0501326
0.0499165
0.0498943
0.0493634
0.0494797
0.0498072
0.0501436
0.0498767
0.0500632
0.0497342
0.0498293
0.0502649
0.0503555
0.050381
0.0500475
0.0505061
0.0505092
0.0505609
0.0507049
0.0503656
0.0502427
0.0505117
0.050188
0.0501096
0.0499118
0.0499345
0.0497753
0.0495362
0.0497404
0.0497113
0.0497147
0.0497355
0.0494214
0.0495996
0.0498326
0.049411
0.0496037
0.049097
0.0495744
0.0496376
0.0497227
0.0500216
0.0502282
0.0503101
0.0503938
0.0503241
0.0502182
0.0495801
0.0498088
0.0498452
0.0501509
0.0502254
0.0500497
0.0508923
0.0509369
0.0512662
0.0515716
0.0534596
)
;

boundaryField
{
    inlet
    {
        type            calculated;
        value           uniform 1;
    }
    outlet
    {
        type            calculated;
        value           uniform 0.0534596;
    }
    yzfaces
    {
        type            empty;
    }
}


// ************************************************************************* //
