/*--------------------------------*- C++ -*----------------------------------*\
| =========                 |                                                 |
| \\      /  F ield         | foam-extend: Open Source CFD                    |
|  \\    /   O peration     | Version:     5.0                                |
|   \\  /    A nd           | Web:         http://www.foam-extend.org         |
|    \\/     M anipulation  |                                                 |
\*---------------------------------------------------------------------------*/
FoamFile
{
    version     2.0;
    format      ascii;
    class       volScalarField;
    location    "8";
    object      alpha.gas;
}
// * * * * * * * * * * * * * * * * * * * * * * * * * * * * * * * * * * * * * //

dimensions      [0 0 0 0 0 0 0];

internalField   nonuniform List<scalar> 
100
(
0.0900861
0.0887515
0.087437
0.0861554
0.0849891
0.0836711
0.0825528
0.0813886
0.0802545
0.0791854
0.0781424
0.07706
0.0760943
0.0750589
0.0741313
0.0731922
0.0722129
0.0711751
0.0703745
0.069417
0.0685849
0.0677437
0.0669921
0.0661693
0.0654028
0.06474
0.0640012
0.0632969
0.0626587
0.0619776
0.0612914
0.0606874
0.0600742
0.0594612
0.0587855
0.0582301
0.0577317
0.0571345
0.0566319
0.0561496
0.0556447
0.0551954
0.0546885
0.0542138
0.0537243
0.05329
0.0527883
0.0523592
0.0519707
0.0515572
0.0511411
0.0506949
0.0503233
0.0498573
0.0494974
0.0491615
0.0487723
0.0484445
0.0480992
0.0477241
0.0473858
0.0470794
0.0467481
0.046441
0.0461543
0.0457928
0.0454791
0.0451854
0.0449047
0.0446199
0.0443225
0.0440248
0.0437615
0.0434877
0.0431963
0.0429329
0.0426587
0.0423963
0.0421364
0.0418977
0.0416336
0.0413654
0.041116
0.0408968
0.0406547
0.0404114
0.0401871
0.0399577
0.0397002
0.0394823
0.0392551
0.03903
0.0388153
0.0386225
0.0384009
0.0381739
0.0380022
0.0378385
0.0377117
0.0376619
)
;

boundaryField
{
    inlet
    {
        type            fixedValue;
        value           uniform 0.2;
    }
    outlet
    {
        type            zeroGradient;
    }
    yzfaces
    {
        type            empty;
    }
}


// ************************************************************************* //
