/*--------------------------------*- C++ -*----------------------------------*\
| =========                 |                                                 |
| \\      /  F ield         | foam-extend: Open Source CFD                    |
|  \\    /   O peration     | Version:     5.0                                |
|   \\  /    A nd           | Web:         http://www.foam-extend.org         |
|    \\/     M anipulation  |                                                 |
\*---------------------------------------------------------------------------*/
FoamFile
{
    version     2.0;
    format      ascii;
    class       surfaceScalarField;
    location    "8";
    object      phi;
}
// * * * * * * * * * * * * * * * * * * * * * * * * * * * * * * * * * * * * * //

dimensions      [0 3 -1 0 0 0 0];

internalField   nonuniform List<scalar> 
99
(
1.22394e-06
1.22297e-06
1.2238e-06
1.23257e-06
1.22578e-06
1.23303e-06
1.22957e-06
1.23532e-06
1.23845e-06
1.23552e-06
1.2319e-06
1.2381e-06
1.23723e-06
1.2354e-06
1.2333e-06
1.23093e-06
1.22865e-06
1.23739e-06
1.23075e-06
1.23904e-06
1.24074e-06
1.24625e-06
1.24216e-06
1.24172e-06
1.24426e-06
1.24309e-06
1.24522e-06
1.24609e-06
1.2445e-06
1.24409e-06
1.24546e-06
1.24769e-06
1.2461e-06
1.2434e-06
1.25083e-06
1.25168e-06
1.24666e-06
1.25432e-06
1.25259e-06
1.25347e-06
1.25237e-06
1.24628e-06
1.25096e-06
1.249e-06
1.24854e-06
1.2453e-06
1.25081e-06
1.24991e-06
1.24986e-06
1.2501e-06
1.24557e-06
1.24484e-06
1.2394e-06
1.24626e-06
1.24751e-06
1.24481e-06
1.24677e-06
1.24727e-06
1.24553e-06
1.24795e-06
1.24876e-06
1.2467e-06
1.24867e-06
1.24855e-06
1.24599e-06
1.24859e-06
1.25075e-06
1.25057e-06
1.25106e-06
1.24702e-06
1.24724e-06
1.2468e-06
1.24811e-06
1.24673e-06
1.24594e-06
1.24565e-06
1.2461e-06
1.2472e-06
1.24843e-06
1.24683e-06
1.24716e-06
1.24718e-06
1.24939e-06
1.24724e-06
1.24797e-06
1.2475e-06
1.24817e-06
1.24626e-06
1.24798e-06
1.24676e-06
1.24633e-06
1.24469e-06
1.24466e-06
1.24234e-06
1.2421e-06
1.24292e-06
1.24273e-06
1.24268e-06
1.24417e-06
)
;

boundaryField
{
    inlet
    {
        type            calculated;
        value           uniform -1.225e-06;
    }
    outlet
    {
        type            calculated;
        value           uniform 1.23953e-06;
    }
    yzfaces
    {
        type            empty;
    }
}


// ************************************************************************* //
