/*--------------------------------*- C++ -*----------------------------------*\
| =========                 |                                                 |
| \\      /  F ield         | foam-extend: Open Source CFD                    |
|  \\    /   O peration     | Version:     5.0                                |
|   \\  /    A nd           | Web:         http://www.foam-extend.org         |
|    \\/     M anipulation  |                                                 |
\*---------------------------------------------------------------------------*/
FoamFile
{
    version     2.0;
    format      ascii;
    class       volVectorField;
    location    "8";
    object      U.water;
}
// * * * * * * * * * * * * * * * * * * * * * * * * * * * * * * * * * * * * * //

dimensions      [0 1 -1 0 0 0 0];

internalField   nonuniform List<vector> 
100
(
(6.21872e-06 0 0)
(1.93843e-05 0 0)
(3.48235e-05 0 0)
(5.89721e-05 0 0)
(6.75103e-05 0 0)
(8.34254e-05 0 0)
(0.000108054 0 0)
(0.000119011 0 0)
(0.000139492 0 0)
(0.00015876 0 0)
(0.00016912 0 0)
(0.000187782 0 0)
(0.000204328 0 0)
(0.000219116 0 0)
(0.000239338 0 0)
(0.000247605 0 0)
(0.0002526 0 0)
(0.000281219 0 0)
(0.000301588 0 0)
(0.000313348 0 0)
(0.000338095 0 0)
(0.000358949 0 0)
(0.000374322 0 0)
(0.000387044 0 0)
(0.000413018 0 0)
(0.000428321 0 0)
(0.000439321 0 0)
(0.000461726 0 0)
(0.000477244 0 0)
(0.000487542 0 0)
(0.000508191 0 0)
(0.000528311 0 0)
(0.000541663 0 0)
(0.000551225 0 0)
(0.000571695 0 0)
(0.000600736 0 0)
(0.000610387 0 0)
(0.000625309 0 0)
(0.000649629 0 0)
(0.000663425 0 0)
(0.00067979 0 0)
(0.000690958 0 0)
(0.000702368 0 0)
(0.000719214 0 0)
(0.000736093 0 0)
(0.000748409 0 0)
(0.000763212 0 0)
(0.000787169 0 0)
(0.000802029 0 0)
(0.000814282 0 0)
(0.000825353 0 0)
(0.000841609 0 0)
(0.000853249 0 0)
(0.000868688 0 0)
(0.000894712 0 0)
(0.000905629 0 0)
(0.000920092 0 0)
(0.000938361 0 0)
(0.000948376 0 0)
(0.000963358 0 0)
(0.000983841 0 0)
(0.000997999 0 0)
(0.00101148 0 0)
(0.00102822 0 0)
(0.00103716 0 0)
(0.00104973 0 0)
(0.00107036 0 0)
(0.00108747 0 0)
(0.00110144 0 0)
(0.0011122 0 0)
(0.00112372 0 0)
(0.00114015 0 0)
(0.00115599 0 0)
(0.00116744 0 0)
(0.00118118 0 0)
(0.00119606 0 0)
(0.00121002 0 0)
(0.00122534 0 0)
(0.00124152 0 0)
(0.00125515 0 0)
(0.00126702 0 0)
(0.0012822 0 0)
(0.00130044 0 0)
(0.00131459 0 0)
(0.00132525 0 0)
(0.00133998 0 0)
(0.00135532 0 0)
(0.00136699 0 0)
(0.00138163 0 0)
(0.00139762 0 0)
(0.00141041 0 0)
(0.00142456 0 0)
(0.00143876 0 0)
(0.00145023 0 0)
(0.00146023 0 0)
(0.0014763 0 0)
(0.001493 0 0)
(0.00150656 0 0)
(0.00152314 0 0)
(0.00153482 0 0)
)
;

boundaryField
{
    inlet
    {
        type            fixedValue;
        value           uniform (0 0 0);
    }
    outlet
    {
        type            zeroGradient;
    }
    yzfaces
    {
        type            empty;
    }
}


// ************************************************************************* //
