/*--------------------------------*- C++ -*----------------------------------*\
| =========                 |                                                 |
| \\      /  F ield         | foam-extend: Open Source CFD                    |
|  \\    /   O peration     | Version:     5.0                                |
|   \\  /    A nd           | Web:         http://www.foam-extend.org         |
|    \\/     M anipulation  |                                                 |
\*---------------------------------------------------------------------------*/
FoamFile
{
    version     2.0;
    format      ascii;
    class       surfaceScalarField;
    location    "9";
    object      phi;
}
// * * * * * * * * * * * * * * * * * * * * * * * * * * * * * * * * * * * * * //

dimensions      [0 3 -1 0 0 0 0];

internalField   nonuniform List<scalar> 
99
(
1.22733e-06
1.22212e-06
1.22536e-06
1.2235e-06
1.22632e-06
1.22426e-06
1.22525e-06
1.22462e-06
1.22377e-06
1.22338e-06
1.22324e-06
1.22567e-06
1.22648e-06
1.2252e-06
1.22417e-06
1.22455e-06
1.22306e-06
1.2244e-06
1.22339e-06
1.22617e-06
1.22214e-06
1.22379e-06
1.22447e-06
1.22333e-06
1.22665e-06
1.2218e-06
1.22424e-06
1.22369e-06
1.22153e-06
1.22483e-06
1.22515e-06
1.22354e-06
1.22151e-06
1.22575e-06
1.22377e-06
1.22134e-06
1.22494e-06
1.2244e-06
1.22641e-06
1.22003e-06
1.22484e-06
1.22256e-06
1.22099e-06
1.22205e-06
1.2341e-06
1.2248e-06
1.24577e-06
1.23409e-06
1.24149e-06
1.22518e-06
1.24157e-06
1.27439e-06
1.32721e-06
1.32626e-06
1.34111e-06
1.2666e-06
1.2666e-06
1.2666e-06
1.3113e-06
1.2964e-06
1.3262e-06
1.2815e-06
1.3411e-06
1.3411e-06
1.35601e-06
1.3411e-06
1.35601e-06
1.37091e-06
1.3411e-06
1.3262e-06
1.3411e-06
1.3113e-06
1.3262e-06
1.35601e-06
1.3262e-06
1.2964e-06
1.3262e-06
1.3113e-06
1.3262e-06
1.35601e-06
1.3411e-06
1.3411e-06
1.3262e-06
1.3411e-06
1.3262e-06
1.3262e-06
1.2964e-06
1.35601e-06
1.3262e-06
1.3262e-06
1.2815e-06
1.3113e-06
1.2666e-06
1.2517e-06
1.2517e-06
1.2666e-06
1.2815e-06
1.2517e-06
1.2219e-06
)
;

boundaryField
{
    inlet
    {
        type            calculated;
        value           uniform -1.225e-06;
    }
    outlet
    {
        type            calculated;
        value           uniform 1.2815e-06;
    }
    yzfaces
    {
        type            empty;
    }
}


// ************************************************************************* //
