/*--------------------------------*- C++ -*----------------------------------*\
| =========                 |                                                 |
| \\      /  F ield         | foam-extend: Open Source CFD                    |
|  \\    /   O peration     | Version:     5.0                                |
|   \\  /    A nd           | Web:         http://www.foam-extend.org         |
|    \\/     M anipulation  |                                                 |
\*---------------------------------------------------------------------------*/
FoamFile
{
    version     2.0;
    format      ascii;
    class       volVectorField;
    location    "9";
    object      U.gas;
}
// * * * * * * * * * * * * * * * * * * * * * * * * * * * * * * * * * * * * * //

dimensions      [0 1 -1 0 0 0 0];

internalField   nonuniform List<vector> 
100
(
(6.38304e-05 0 0)
(0.000142369 0 0)
(0.000215877 0 0)
(0.000287062 0 0)
(0.000357178 0 0)
(0.000426247 0 0)
(0.000494185 0 0)
(0.000561896 0 0)
(0.000629209 0 0)
(0.000696701 0 0)
(0.000764506 0 0)
(0.00083322 0 0)
(0.000901912 0 0)
(0.000969768 0 0)
(0.00103697 0 0)
(0.00110511 0 0)
(0.00117326 0 0)
(0.00124243 0 0)
(0.00131201 0 0)
(0.00138349 0 0)
(0.00145275 0 0)
(0.00152386 0 0)
(0.00159724 0 0)
(0.00167114 0 0)
(0.00174792 0 0)
(0.0018229 0 0)
(0.00190044 0 0)
(0.00198299 0 0)
(0.00206517 0 0)
(0.00215472 0 0)
(0.00225083 0 0)
(0.00235013 0 0)
(0.00245454 0 0)
(0.00257788 0 0)
(0.00271409 0 0)
(0.00286922 0 0)
(0.00306816 0 0)
(0.00333092 0 0)
(0.00370881 0 0)
(0.00430986 0 0)
(0.00542761 0 0)
(0.00633034 0 0)
(0.00581351 0 0)
(0.00545168 0 0)
(0.00532703 0 0)
(0.00521634 0 0)
(0.00518076 0 0)
(0.00515923 0 0)
(0.00513385 0 0)
(0.00507915 0 0)
(0.00506626 0 0)
(0.00514948 0 0)
(0.00531428 0 0)
(0.00541563 0 0)
(0.00544365 0 0)
(0.00532186 0 0)
(0.00516979 0 0)
(0.00516979 0 0)
(0.00526102 0 0)
(0.00532184 0 0)
(0.00535225 0 0)
(0.00532184 0 0)
(0.00535225 0 0)
(0.0054739 0 0)
(0.00550431 0 0)
(0.00550431 0 0)
(0.00550431 0 0)
(0.00556513 0 0)
(0.00553472 0 0)
(0.00544349 0 0)
(0.00544349 0 0)
(0.00541307 0 0)
(0.00538266 0 0)
(0.0054739 0 0)
(0.0054739 0 0)
(0.00535225 0 0)
(0.00535225 0 0)
(0.00538266 0 0)
(0.00538266 0 0)
(0.0054739 0 0)
(0.00550431 0 0)
(0.0054739 0 0)
(0.00544349 0 0)
(0.00544349 0 0)
(0.00544349 0 0)
(0.00541307 0 0)
(0.00535225 0 0)
(0.00541307 0 0)
(0.0054739 0 0)
(0.00541307 0 0)
(0.00532184 0 0)
(0.00529143 0 0)
(0.00526102 0 0)
(0.00513938 0 0)
(0.00510897 0 0)
(0.00513938 0 0)
(0.0052002 0 0)
(0.00516979 0 0)
(0.00504815 0 0)
(0.00510897 0 0)
)
;

boundaryField
{
    inlet
    {
        type            fixedValue;
        value           uniform (0 0 0);
    }
    outlet
    {
        type            zeroGradient;
    }
    yzfaces
    {
        type            empty;
    }
}


// ************************************************************************* //
