/*--------------------------------*- C++ -*----------------------------------*\
| =========                 |                                                 |
| \\      /  F ield         | foam-extend: Open Source CFD                    |
|  \\    /   O peration     | Version:     5.0                                |
|   \\  /    A nd           | Web:         http://www.foam-extend.org         |
|    \\/     M anipulation  |                                                 |
\*---------------------------------------------------------------------------*/
FoamFile
{
    version     2.0;
    format      ascii;
    class       volVectorField;
    location    "9";
    object      U.water;
}
// * * * * * * * * * * * * * * * * * * * * * * * * * * * * * * * * * * * * * //

dimensions      [0 1 -1 0 0 0 0];

internalField   nonuniform List<vector> 
100
(
(0.00500698 0 0)
(0.00500241 0 0)
(0.00499956 0 0)
(0.0050035 0 0)
(0.00500652 0 0)
(0.00500907 0 0)
(0.00500785 0 0)
(0.00500951 0 0)
(0.00500738 0 0)
(0.0050057 0 0)
(0.00500545 0 0)
(0.00501093 0 0)
(0.00501833 0 0)
(0.0050181 0 0)
(0.00501408 0 0)
(0.00501341 0 0)
(0.00501178 0 0)
(0.00501209 0 0)
(0.00501336 0 0)
(0.00501754 0 0)
(0.00501553 0 0)
(0.00501113 0 0)
(0.00501638 0 0)
(0.00501587 0 0)
(0.00502075 0 0)
(0.00501801 0 0)
(0.00501344 0 0)
(0.00501764 0 0)
(0.00501237 0 0)
(0.00501498 0 0)
(0.00502264 0 0)
(0.00502016 0 0)
(0.00501285 0 0)
(0.00501742 0 0)
(0.00502206 0 0)
(0.0050129 0 0)
(0.00501492 0 0)
(0.00502037 0 0)
(0.00502128 0 0)
(0.00500603 0 0)
(0.00497611 0 0)
(0.00490013 0 0)
(0.00482389 0 0)
(0.00478101 0 0)
(0.00475978 0 0)
(0.00475117 0 0)
(0.00473949 0 0)
(0.00470954 0 0)
(0.00456484 0 0)
(0.00454158 0 0)
(0.00431895 0 0)
(0.00427044 0 0)
(0.00420178 0 0)
(0.00470682 0 0)
(0.00463277 0 0)
(0.00360176 0 0)
(0.000305568 0 0)
(2.66435e-05 0 0)
(2.32105e-06 0 0)
(2.02664e-07 0 0)
(1.75489e-08 0 0)
(1.52586e-09 0 0)
(1.3126e-10 0 0)
(1.15226e-11 0 0)
(9.98447e-13 0 0)
(8.68128e-14 0 0)
(7.4672e-15 0 0)
(6.56016e-16 0 0)
(5.71406e-17 0 0)
(4.92716e-18 0 0)
(4.342e-19 0 0)
(3.79004e-20 0 0)
(3.28004e-21 0 0)
(2.89915e-22 0 0)
(2.54009e-23 0 0)
(2.22522e-24 0 0)
(1.93211e-25 0 0)
(1.71399e-26 0 0)
(1.48999e-27 0 0)
(1.32303e-28 0 0)
(1.16238e-29 0 0)
(1.00743e-30 0 0)
(8.9524e-32 0 0)
(7.78621e-33 0 0)
(6.90742e-34 0 0)
(5.97605e-35 0 0)
(5.23754e-36 0 0)
(4.58519e-37 0 0)
(4.05247e-38 0 0)
(3.5073e-39 0 0)
(3.08844e-40 0 0)
(2.67831e-41 0 0)
(2.37161e-42 0 0)
(2.05639e-43 0 0)
(1.79861e-44 0 0)
(1.57138e-45 0 0)
(1.38626e-46 0 0)
(1.21162e-47 0 0)
(1.05833e-48 0 0)
(8.31338e-50 0 0)
)
;

boundaryField
{
    inlet
    {
        type            fixedValue;
        value           uniform (0.005 0 0);
    }
    outlet
    {
        type            zeroGradient;
    }
    yzfaces
    {
        type            empty;
    }
}


// ************************************************************************* //
