/*--------------------------------*- C++ -*----------------------------------*\
| =========                 |                                                 |
| \\      /  F ield         | foam-extend: Open Source CFD                    |
|  \\    /   O peration     | Version:     5.0                                |
|   \\  /    A nd           | Web:         http://www.foam-extend.org         |
|    \\/     M anipulation  |                                                 |
\*---------------------------------------------------------------------------*/
FoamFile
{
    version     2.0;
    format      ascii;
    class       volScalarField;
    location    "9";
    object      YH2O;
}
// * * * * * * * * * * * * * * * * * * * * * * * * * * * * * * * * * * * * * //

dimensions      [0 0 0 0 0 0 0];

internalField   nonuniform List<scalar> 
100
(
0.983168
1.02216
0.974941
1.016
1.00785
0.998959
0.988824
0.998151
1.02588
0.945217
1.02398
1.01871
0.947882
1.04425
0.961285
1.01758
0.9785
1.01155
0.981567
1.00904
0.973521
1.02797
0.944439
1.05079
0.945853
1.02286
0.986553
0.991684
0.990965
0.990562
0.995478
0.98661
0.983465
1.01235
0.969222
0.997412
0.990443
0.980892
0.99329
0.972745
0.973107
0.941268
0.81554
0.720281
0.511271
0.463101
0.315804
0.207462
0.113503
0.117744
0.0855051
-0.0139447
-0.0308025
-0.0084018
-0.00999994
0.0483343
-0.0709916
0.0227566
-0.010173
0.0170104
-0.0587306
0.0578921
-0.0629532
0.10029
-0.0649179
0.0965673
-0.0828861
0.0840602
-0.111284
0.0320702
-0.112693
-0.0192022
-0.033559
-0.0488977
0.0164554
-0.0917868
0.0119507
0.0158486
-0.0268574
0.0565712
-0.0744147
0.0865216
-0.051495
0.0534124
-0.0721399
0.0447551
-0.012516
0.054451
0.0192979
0.0210393
0.0335741
-0.00874296
0.0123824
0.0170815
-0.0609828
0.0037413
-0.0320373
-0.00237183
-0.0680381
-0.0100743
)
;

boundaryField
{
    inlet
    {
        type            calculated;
        value           uniform 1;
    }
    outlet
    {
        type            calculated;
        value           uniform -0.0100743;
    }
    yzfaces
    {
        type            empty;
    }
}


// ************************************************************************* //
