/*--------------------------------*- C++ -*----------------------------------*\
| =========                 |                                                 |
| \\      /  F ield         | foam-extend: Open Source CFD                    |
|  \\    /   O peration     | Version:     5.0                                |
|   \\  /    A nd           | Web:         http://www.foam-extend.org         |
|    \\/     M anipulation  |                                                 |
\*---------------------------------------------------------------------------*/
FoamFile
{
    version     2.0;
    format      ascii;
    class       regIOobject;
    location    "6/uniform";
    object      profilingInfo;
}
// * * * * * * * * * * * * * * * * * * * * * * * * * * * * * * * * * * * * * //

profilingInfo
(

    {
        id              6;
        parentId        5;
        description     "Foam::Time::writeObject - outputTime";
        calls           6;
        totalTime       0.520809;
        childTime       0;
        onStack         1;
    }

    {
        id              5;
        parentId        1;
        description     "Foam::Time::writeObject";
        calls           176;
        totalTime       0.521263;
        childTime       0.520809;
        onStack         1;
    }

    {
        id              1;
        description     "application::main";
        calls           1;
        totalTime       3.2546;
        childTime       0.535446;
        onStack         1;
    }

    {
        id              2;
        parentId        1;
        description     "functionObjectList::read";
        calls           1;
        totalTime       8.1e-05;
        childTime       0;
        onStack         0;
    }

    {
        id              3;
        parentId        1;
        description     "fvMatrix::solve_XCO2";
        calls           176;
        totalTime       0.014102;
        childTime       0.003595;
        onStack         0;
    }

    {
        id              4;
        parentId        3;
        description     "lduMatrix::solver_XCO2";
        calls           176;
        totalTime       0.003595;
        childTime       0;
        onStack         0;
    }
);


// ************************************************************************* //
