/*--------------------------------*- C++ -*----------------------------------*\
| =========                 |                                                 |
| \\      /  F ield         | foam-extend: Open Source CFD                    |
|  \\    /   O peration     | Version:     5.0                                |
|   \\  /    A nd           | Web:         http://www.foam-extend.org         |
|    \\/     M anipulation  |                                                 |
\*---------------------------------------------------------------------------*/
FoamFile
{
    version     2.0;
    format      ascii;
    class       volVectorField;
    location    "1";
    object      U.water;
}
// * * * * * * * * * * * * * * * * * * * * * * * * * * * * * * * * * * * * * //

dimensions      [0 1 -1 0 0 0 0];

internalField   nonuniform List<vector> 
100
(
(4.63825e-05 0 0)
(0.000147695 0 0)
(0.000255504 0 0)
(0.000362335 0 0)
(0.000474628 0 0)
(0.000577744 0 0)
(0.000686429 0 0)
(0.000806532 0 0)
(0.000920497 0 0)
(0.00103731 0 0)
(0.00115232 0 0)
(0.00127293 0 0)
(0.00139476 0 0)
(0.00150979 0 0)
(0.00162813 0 0)
(0.00175276 0 0)
(0.00187963 0 0)
(0.00200841 0 0)
(0.00214931 0 0)
(0.00229189 0 0)
(0.00244109 0 0)
(0.00260986 0 0)
(0.00279115 0 0)
(0.00299305 0 0)
(0.00322466 0 0)
(0.00350009 0 0)
(0.00382902 0 0)
(0.0042084 0 0)
(0.0045969 0 0)
(0.00486684 0 0)
(0.00496586 0 0)
(0.00497955 0 0)
(0.00497673 0 0)
(0.00497687 0 0)
(0.00497877 0 0)
(0.0049802 0 0)
(0.0049802 0 0)
(0.00498115 0 0)
(0.00498163 0 0)
(0.00498115 0 0)
(0.00498305 0 0)
(0.00498448 0 0)
(0.004984 0 0)
(0.00498258 0 0)
(0.00498495 0 0)
(0.00498495 0 0)
(0.004984 0 0)
(0.00498685 0 0)
(0.00498638 0 0)
(0.00498733 0 0)
(0.00498828 0 0)
(0.0049878 0 0)
(0.00499018 0 0)
(0.00499208 0 0)
(0.00499541 0 0)
(0.00499445 0 0)
(0.00499303 0 0)
(0.00499588 0 0)
(0.00499541 0 0)
(0.00499255 0 0)
(0.00499303 0 0)
(0.00499588 0 0)
(0.00499778 0 0)
(0.00500016 0 0)
(0.00500016 0 0)
(0.00499778 0 0)
(0.00499873 0 0)
(0.00499826 0 0)
(0.00499731 0 0)
(0.00500016 0 0)
(0.00499968 0 0)
(0.00499778 0 0)
(0.00499968 0 0)
(0.00499921 0 0)
(0.00499921 0 0)
(0.00499921 0 0)
(0.00500016 0 0)
(0.00500206 0 0)
(0.00500063 0 0)
(0.00500111 0 0)
(0.00500016 0 0)
(0.00499968 0 0)
(0.00500016 0 0)
(0.00499968 0 0)
(0.00500016 0 0)
(0.00499968 0 0)
(0.00499921 0 0)
(0.00500016 0 0)
(0.00499921 0 0)
(0.00500063 0 0)
(0.00500158 0 0)
(0.00500301 0 0)
(0.00500586 0 0)
(0.00500348 0 0)
(0.00500491 0 0)
(0.00500681 0 0)
(0.00500538 0 0)
(0.00500491 0 0)
(0.00500538 0 0)
(0.00500823 0 0)
)
;

boundaryField
{
    inlet
    {
        type            fixedValue;
        value           uniform (0 0 0);
    }
    outlet
    {
        type            zeroGradient;
    }
    yzfaces
    {
        type            empty;
    }
}


// ************************************************************************* //
