/*--------------------------------*- C++ -*----------------------------------*\
| =========                 |                                                 |
| \\      /  F ield         | foam-extend: Open Source CFD                    |
|  \\    /   O peration     | Version:     5.0                                |
|   \\  /    A nd           | Web:         http://www.foam-extend.org         |
|    \\/     M anipulation  |                                                 |
\*---------------------------------------------------------------------------*/
FoamFile
{
    version     2.0;
    format      ascii;
    class       volScalarField;
    location    "1";
    object      XH2O;
}
// * * * * * * * * * * * * * * * * * * * * * * * * * * * * * * * * * * * * * //

dimensions      [0 0 0 0 0 0 0];

internalField   nonuniform List<scalar> 
100
(
0.323954
0.310022
0.30385
0.292572
0.278522
0.270044
0.256065
0.251869
0.244137
0.233701
0.222112
0.216879
0.205616
0.199084
0.190592
0.183218
0.175858
0.170361
0.161467
0.154805
0.147507
0.138523
0.130301
0.121419
0.109565
0.0986998
0.0821788
0.0640026
0.0420891
0.0181883
0.00392238
0.00025082
0.000462044
-0.000246889
0.0010521
-0.000817631
0.000233414
0.000494507
0.00106697
-0.000668617
0.00135463
0.000363457
-0.000257725
0.000979532
-0.000619443
0.000917277
-0.000832322
0.00190728
-0.00064703
0.000576154
0.000679661
-0.000171666
0.000780134
-0.000573453
0.00143806
-0.00126431
0.000512136
0.000360949
0.000898281
0.000841061
-0.000719851
0.00111906
-0.00126472
0.00152564
-0.00147847
0.000855027
-0.000248874
-0.000868827
0.000585257
0.000329114
-0.000540452
0.000607773
-0.000265315
0.000109474
0.00129323
-0.00013513
0.000689221
0.00017845
0.000472493
0.000793309
-0.000320759
0.00104082
-3.41306e-05
0.000419873
-0.000650281
0.00118014
-6.63992e-05
0.00132279
-0.000947479
0.00111438
-0.00146821
0.00189209
-0.000211297
-0.000661181
0.000181843
0.000453455
0.00066473
-9.35785e-05
0.000648395
0.000447217
)
;

boundaryField
{
    inlet
    {
        type            calculated;
        value           uniform 1;
    }
    outlet
    {
        type            calculated;
        value           uniform 0.000447217;
    }
    yzfaces
    {
        type            empty;
    }
}


// ************************************************************************* //
