/*--------------------------------*- C++ -*----------------------------------*\
| =========                 |                                                 |
| \\      /  F ield         | foam-extend: Open Source CFD                    |
|  \\    /   O peration     | Version:     5.0                                |
|   \\  /    A nd           | Web:         http://www.foam-extend.org         |
|    \\/     M anipulation  |                                                 |
\*---------------------------------------------------------------------------*/
FoamFile
{
    version     2.0;
    format      ascii;
    class       surfaceScalarField;
    location    "1";
    object      phi;
}
// * * * * * * * * * * * * * * * * * * * * * * * * * * * * * * * * * * * * * //

dimensions      [0 3 -1 0 0 0 0];

internalField   nonuniform List<scalar> 
99
(
1.22304e-06
1.22337e-06
1.22992e-06
1.2205e-06
1.2246e-06
1.22017e-06
1.22664e-06
1.22277e-06
1.22618e-06
1.22616e-06
1.22706e-06
1.22746e-06
1.22578e-06
1.22686e-06
1.22413e-06
1.22757e-06
1.22778e-06
1.22641e-06
1.22778e-06
1.22765e-06
1.22951e-06
1.22652e-06
1.22784e-06
1.22569e-06
1.22735e-06
1.2264e-06
1.2272e-06
1.22688e-06
1.22656e-06
1.22721e-06
1.22693e-06
1.22741e-06
1.22841e-06
1.22725e-06
1.22725e-06
1.22725e-06
1.22725e-06
1.22748e-06
1.22748e-06
1.22702e-06
1.22748e-06
1.22725e-06
1.22748e-06
1.22725e-06
1.22702e-06
1.22678e-06
1.22702e-06
1.22678e-06
1.22748e-06
1.22772e-06
1.22772e-06
1.22772e-06
1.22772e-06
1.22748e-06
1.22725e-06
1.22748e-06
1.22632e-06
1.22702e-06
1.22702e-06
1.22702e-06
1.22702e-06
1.22678e-06
1.22632e-06
1.22655e-06
1.22655e-06
1.22655e-06
1.22632e-06
1.22609e-06
1.22632e-06
1.22609e-06
1.22678e-06
1.22655e-06
1.22725e-06
1.22772e-06
1.22702e-06
1.22748e-06
1.22725e-06
1.22772e-06
1.22748e-06
1.22772e-06
1.22748e-06
1.22748e-06
1.22748e-06
1.22748e-06
1.22772e-06
1.22818e-06
1.22772e-06
1.22772e-06
1.22818e-06
1.22725e-06
1.22772e-06
1.22748e-06
1.22795e-06
1.22795e-06
1.22818e-06
1.22841e-06
1.22795e-06
1.22795e-06
1.22772e-06
)
;

boundaryField
{
    inlet
    {
        type            calculated;
        value           uniform -1.225e-06;
    }
    outlet
    {
        type            calculated;
        value           uniform 1.22888e-06;
    }
    yzfaces
    {
        type            empty;
    }
}


// ************************************************************************* //
