/*--------------------------------*- C++ -*----------------------------------*\
| =========                 |                                                 |
| \\      /  F ield         | foam-extend: Open Source CFD                    |
|  \\    /   O peration     | Version:     5.0                                |
|   \\  /    A nd           | Web:         http://www.foam-extend.org         |
|    \\/     M anipulation  |                                                 |
\*---------------------------------------------------------------------------*/
FoamFile
{
    version     2.0;
    format      ascii;
    class       volVectorField;
    location    "1";
    object      U.water;
}
// * * * * * * * * * * * * * * * * * * * * * * * * * * * * * * * * * * * * * //

dimensions      [0 1 -1 0 0 0 0];

internalField   nonuniform List<vector> 
100
(
(4.23377e-05 0 0)
(0.000141595 0 0)
(0.000259655 0 0)
(0.000352562 0 0)
(0.000457788 0 0)
(0.000573458 0 0)
(0.000689459 0 0)
(0.000808288 0 0)
(0.000918594 0 0)
(0.00104309 0 0)
(0.0011633 0 0)
(0.0012823 0 0)
(0.00139708 0 0)
(0.00151616 0 0)
(0.00163426 0 0)
(0.00175874 0 0)
(0.00189206 0 0)
(0.00202132 0 0)
(0.00215875 0 0)
(0.00230486 0 0)
(0.00246149 0 0)
(0.002625 0 0)
(0.00280437 0 0)
(0.00300824 0 0)
(0.00324358 0 0)
(0.0035228 0 0)
(0.00385224 0 0)
(0.00423662 0 0)
(0.00462306 0 0)
(0.00489426 0 0)
(0.00499421 0 0)
(0.00500855 0 0)
(0.00501188 0 0)
(0.00501156 0 0)
(0.00500918 0 0)
(0.00500918 0 0)
(0.00500918 0 0)
(0.00500966 0 0)
(0.00501014 0 0)
(0.00500918 0 0)
(0.00500918 0 0)
(0.00500966 0 0)
(0.00500966 0 0)
(0.00500966 0 0)
(0.00500871 0 0)
(0.00500776 0 0)
(0.00500776 0 0)
(0.00500776 0 0)
(0.00500871 0 0)
(0.00501061 0 0)
(0.00501109 0 0)
(0.00501109 0 0)
(0.00501109 0 0)
(0.00501061 0 0)
(0.00500966 0 0)
(0.00500966 0 0)
(0.00500776 0 0)
(0.00500681 0 0)
(0.00500823 0 0)
(0.00500823 0 0)
(0.00500823 0 0)
(0.00500776 0 0)
(0.00500633 0 0)
(0.00500586 0 0)
(0.00500633 0 0)
(0.00500633 0 0)
(0.00500586 0 0)
(0.00500491 0 0)
(0.00500491 0 0)
(0.00500491 0 0)
(0.00500586 0 0)
(0.00500681 0 0)
(0.00500776 0 0)
(0.00501014 0 0)
(0.00500966 0 0)
(0.00500918 0 0)
(0.00500966 0 0)
(0.00501014 0 0)
(0.00501061 0 0)
(0.00501061 0 0)
(0.00501061 0 0)
(0.00501014 0 0)
(0.00501014 0 0)
(0.00501014 0 0)
(0.00501061 0 0)
(0.00501204 0 0)
(0.00501204 0 0)
(0.00501109 0 0)
(0.00501204 0 0)
(0.00501109 0 0)
(0.00501014 0 0)
(0.00501061 0 0)
(0.00501109 0 0)
(0.00501204 0 0)
(0.00501251 0 0)
(0.00501346 0 0)
(0.00501299 0 0)
(0.00501204 0 0)
(0.00501156 0 0)
(0.00501346 0 0)
)
;

boundaryField
{
    inlet
    {
        type            fixedValue;
        value           uniform (0 0 0);
    }
    outlet
    {
        type            zeroGradient;
    }
    yzfaces
    {
        type            empty;
    }
}


// ************************************************************************* //
