/*--------------------------------*- C++ -*----------------------------------*\
| =========                 |                                                 |
| \\      /  F ield         | foam-extend: Open Source CFD                    |
|  \\    /   O peration     | Version:     5.0                                |
|   \\  /    A nd           | Web:         http://www.foam-extend.org         |
|    \\/     M anipulation  |                                                 |
\*---------------------------------------------------------------------------*/
FoamFile
{
    version     2.0;
    format      ascii;
    class       volVectorField;
    location    "10";
    object      U.water;
}
// * * * * * * * * * * * * * * * * * * * * * * * * * * * * * * * * * * * * * //

dimensions      [0 1 -1 0 0 0 0];

internalField   nonuniform List<vector> 
100
(
(9.86705e-06 0 0)
(2.04857e-05 0 0)
(2.34514e-05 0 0)
(4.18898e-05 0 0)
(6.16473e-05 0 0)
(8.00092e-05 0 0)
(8.90406e-05 0 0)
(9.25995e-05 0 0)
(0.00010875 0 0)
(0.000125322 0 0)
(0.000138417 0 0)
(0.000147128 0 0)
(0.000163147 0 0)
(0.000180823 0 0)
(0.000193942 0 0)
(0.000201753 0 0)
(0.000214764 0 0)
(0.00023378 0 0)
(0.000239583 0 0)
(0.000253017 0 0)
(0.000269007 0 0)
(0.000283852 0 0)
(0.000304375 0 0)
(0.000319067 0 0)
(0.000327695 0 0)
(0.000338464 0 0)
(0.000355913 0 0)
(0.000370288 0 0)
(0.000383647 0 0)
(0.000400296 0 0)
(0.000412312 0 0)
(0.000423878 0 0)
(0.000440224 0 0)
(0.000449931 0 0)
(0.000462151 0 0)
(0.000479263 0 0)
(0.000491202 0 0)
(0.000503575 0 0)
(0.000515208 0 0)
(0.000527566 0 0)
(0.000541985 0 0)
(0.000558683 0 0)
(0.000573427 0 0)
(0.000580236 0 0)
(0.000595329 0 0)
(0.000613358 0 0)
(0.000628226 0 0)
(0.000643738 0 0)
(0.000658869 0 0)
(0.000669216 0 0)
(0.000680479 0 0)
(0.000693823 0 0)
(0.00070555 0 0)
(0.00071698 0 0)
(0.000732081 0 0)
(0.000743795 0 0)
(0.000756823 0 0)
(0.000770246 0 0)
(0.000784291 0 0)
(0.00079707 0 0)
(0.000807591 0 0)
(0.000823641 0 0)
(0.000834009 0 0)
(0.000843872 0 0)
(0.000856585 0 0)
(0.000875378 0 0)
(0.000889795 0 0)
(0.00089716 0 0)
(0.000905166 0 0)
(0.000916709 0 0)
(0.00092828 0 0)
(0.000940121 0 0)
(0.000957114 0 0)
(0.000966326 0 0)
(0.000977372 0 0)
(0.000989435 0 0)
(0.000997272 0 0)
(0.00100947 0 0)
(0.00102239 0 0)
(0.00103357 0 0)
(0.00104493 0 0)
(0.00105884 0 0)
(0.00107053 0 0)
(0.00107972 0 0)
(0.00108794 0 0)
(0.0011012 0 0)
(0.00111495 0 0)
(0.00112663 0 0)
(0.00113837 0 0)
(0.00114859 0 0)
(0.00116035 0 0)
(0.00117301 0 0)
(0.00118296 0 0)
(0.00119199 0 0)
(0.0012042 0 0)
(0.00121707 0 0)
(0.00122714 0 0)
(0.00123711 0 0)
(0.00124774 0 0)
(0.00126113 0 0)
)
;

boundaryField
{
    inlet
    {
        type            fixedValue;
        value           uniform (0 0 0);
    }
    outlet
    {
        type            zeroGradient;
    }
    yzfaces
    {
        type            empty;
    }
}


// ************************************************************************* //
