/*--------------------------------*- C++ -*----------------------------------*\
| =========                 |                                                 |
| \\      /  F ield         | foam-extend: Open Source CFD                    |
|  \\    /   O peration     | Version:     5.0                                |
|   \\  /    A nd           | Web:         http://www.foam-extend.org         |
|    \\/     M anipulation  |                                                 |
\*---------------------------------------------------------------------------*/
FoamFile
{
    version     2.0;
    format      ascii;
    class       volScalarField;
    location    "10";
    object      YH2O;
}
// * * * * * * * * * * * * * * * * * * * * * * * * * * * * * * * * * * * * * //

dimensions      [0 0 0 0 0 0 0];

internalField   nonuniform List<scalar> 
100
(
-0.00498356
0.00540959
-0.00795569
0.0103728
-0.0115993
0.0166097
-0.0171037
0.0124926
-0.0168527
0.0152287
-0.0129689
0.0109224
-0.0106707
0.0110651
-0.00342673
0.0058037
-0.0015241
0.00738281
-0.00206678
0.00481586
-0.0041067
0.00135765
-0.00509433
-0.000427913
-0.00566552
0.00299195
-0.00403502
0.00674503
-0.00312732
0.00557216
0.00037451
0.00129704
-0.00108282
0.00365564
-0.00085268
0.00319063
-0.000259467
0.00172179
-0.00053285
0.00138184
-0.00190402
0.00405781
-0.00112588
0.000272647
0.00194608
0.00365211
0.000215214
0.00406094
0.00247088
-0.00204358
0.00157442
0.000426926
0.00041018
-0.000579677
-0.00019663
0.00163105
-0.000603397
-0.000313751
-0.000893668
0.000820707
0.00147207
-0.00104361
0.00206242
-0.00233774
0.00366508
-0.00309623
0.00442015
-0.00358736
0.00391362
-0.00351061
0.00484089
-0.000352548
0.00432242
-0.000801559
0.00356911
-8.78362e-05
0.000577564
-0.000891953
-0.000710527
-0.00163637
-0.00194113
-0.00296926
-0.00177339
-0.0028875
-0.00145032
-0.00153052
-0.00156421
-0.00163184
-0.00446451
-0.00201253
-0.00211139
-0.00323334
-0.00273281
-0.00221741
-0.00278066
-0.00197054
-0.00102941
-0.000790565
-0.0021042
-0.000417023
)
;

boundaryField
{
    inlet
    {
        type            calculated;
        value           uniform 0;
    }
    outlet
    {
        type            calculated;
        value           uniform -0.000417023;
    }
    yzfaces
    {
        type            empty;
    }
}


// ************************************************************************* //
