/*--------------------------------*- C++ -*----------------------------------*\
| =========                 |                                                 |
| \\      /  F ield         | foam-extend: Open Source CFD                    |
|  \\    /   O peration     | Version:     5.0                                |
|   \\  /    A nd           | Web:         http://www.foam-extend.org         |
|    \\/     M anipulation  |                                                 |
\*---------------------------------------------------------------------------*/
FoamFile
{
    version     2.0;
    format      ascii;
    class       volScalarField;
    location    "8";
    object      alpha.gas;
}
// * * * * * * * * * * * * * * * * * * * * * * * * * * * * * * * * * * * * * //

dimensions      [0 0 0 0 0 0 0];

internalField   nonuniform List<scalar> 
100
(
0.0901329
0.0888458
0.0874429
0.0862376
0.0849845
0.083719
0.0826209
0.0813132
0.0802359
0.0790504
0.078062
0.0770925
0.0759707
0.0749451
0.074062
0.0730986
0.0721509
0.071313
0.0703623
0.0695178
0.0686402
0.0678442
0.0670285
0.0662557
0.0655308
0.0647744
0.0640064
0.0633558
0.0626786
0.0620342
0.061389
0.0606878
0.0601144
0.0595034
0.0589086
0.0583196
0.0577648
0.0572363
0.0567286
0.0561685
0.0556465
0.0550969
0.0546496
0.0541667
0.0537352
0.0533141
0.0528305
0.0523953
0.0519646
0.0515193
0.0511197
0.0507564
0.0503757
0.0499811
0.0495967
0.0492414
0.0488621
0.0484802
0.0481466
0.0478135
0.0474668
0.0471203
0.0467808
0.0464879
0.0461725
0.0458539
0.0455429
0.045204
0.0449394
0.0446454
0.044364
0.0440795
0.0437715
0.0435011
0.0432245
0.0429591
0.042674
0.0424308
0.0421196
0.0418828
0.0416129
0.0413704
0.0411475
0.040879
0.0406282
0.0404013
0.040149
0.0399234
0.0396943
0.0394554
0.0392514
0.0390282
0.0387802
0.0385758
0.0383797
0.0381963
0.0380194
0.0378607
0.0377166
0.0376451
)
;

boundaryField
{
    inlet
    {
        type            fixedValue;
        value           uniform 0.2;
    }
    outlet
    {
        type            zeroGradient;
    }
    yzfaces
    {
        type            empty;
    }
}


// ************************************************************************* //
