/*--------------------------------*- C++ -*----------------------------------*\
| =========                 |                                                 |
| \\      /  F ield         | foam-extend: Open Source CFD                    |
|  \\    /   O peration     | Version:     5.0                                |
|   \\  /    A nd           | Web:         http://www.foam-extend.org         |
|    \\/     M anipulation  |                                                 |
\*---------------------------------------------------------------------------*/
FoamFile
{
    version     2.0;
    format      ascii;
    class       surfaceScalarField;
    location    "8";
    object      phi;
}
// * * * * * * * * * * * * * * * * * * * * * * * * * * * * * * * * * * * * * //

dimensions      [0 3 -1 0 0 0 0];

internalField   nonuniform List<scalar> 
99
(
1.22463e-06
1.22491e-06
1.22867e-06
1.22211e-06
1.21883e-06
1.22698e-06
1.21799e-06
1.22628e-06
1.21819e-06
1.2179e-06
1.22052e-06
1.2128e-06
1.21315e-06
1.21953e-06
1.21541e-06
1.21939e-06
1.22037e-06
1.21544e-06
1.21616e-06
1.2097e-06
1.21135e-06
1.20565e-06
1.20697e-06
1.20586e-06
1.20424e-06
1.20306e-06
1.2105e-06
1.20403e-06
1.20764e-06
1.20507e-06
1.20144e-06
1.20634e-06
1.20426e-06
1.2024e-06
1.20088e-06
1.1994e-06
1.20196e-06
1.20236e-06
1.19898e-06
1.20112e-06
1.19692e-06
1.20006e-06
1.19693e-06
1.1958e-06
1.19544e-06
1.19175e-06
1.19397e-06
1.19604e-06
1.19731e-06
1.19583e-06
1.20206e-06
1.19826e-06
1.20115e-06
1.20068e-06
1.20533e-06
1.20392e-06
1.20236e-06
1.20608e-06
1.20657e-06
1.2034e-06
1.20485e-06
1.20386e-06
1.2073e-06
1.20652e-06
1.20717e-06
1.20659e-06
1.20247e-06
1.20482e-06
1.20534e-06
1.2063e-06
1.20556e-06
1.20493e-06
1.20612e-06
1.2057e-06
1.20526e-06
1.20453e-06
1.20613e-06
1.20192e-06
1.20713e-06
1.20524e-06
1.20609e-06
1.20549e-06
1.20479e-06
1.20744e-06
1.20872e-06
1.20825e-06
1.20904e-06
1.20827e-06
1.20679e-06
1.20867e-06
1.20649e-06
1.2063e-06
1.20702e-06
1.20797e-06
1.20835e-06
1.20832e-06
1.20885e-06
1.20731e-06
1.20861e-06
)
;

boundaryField
{
    inlet
    {
        type            calculated;
        value           uniform -1.225e-06;
    }
    outlet
    {
        type            calculated;
        value           uniform 1.20665e-06;
    }
    yzfaces
    {
        type            empty;
    }
}


// ************************************************************************* //
