/*--------------------------------*- C++ -*----------------------------------*\
| =========                 |                                                 |
| \\      /  F ield         | foam-extend: Open Source CFD                    |
|  \\    /   O peration     | Version:     5.0                                |
|   \\  /    A nd           | Web:         http://www.foam-extend.org         |
|    \\/     M anipulation  |                                                 |
\*---------------------------------------------------------------------------*/
FoamFile
{
    version     2.0;
    format      ascii;
    class       volVectorField;
    location    "8";
    object      U.gas;
}
// * * * * * * * * * * * * * * * * * * * * * * * * * * * * * * * * * * * * * //

dimensions      [0 1 -1 0 0 0 0];

internalField   nonuniform List<vector> 
100
(
(0.011081 0 0)
(0.0112341 0 0)
(0.0114091 0 0)
(0.0115238 0 0)
(0.0116383 0 0)
(0.0118024 0 0)
(0.0119426 0 0)
(0.0121097 0 0)
(0.0122392 0 0)
(0.0123493 0 0)
(0.0124694 0 0)
(0.0125965 0 0)
(0.0127283 0 0)
(0.0128826 0 0)
(0.0130169 0 0)
(0.0131715 0 0)
(0.0133277 0 0)
(0.0134366 0 0)
(0.0135676 0 0)
(0.0136608 0 0)
(0.0137727 0 0)
(0.0138726 0 0)
(0.0139821 0 0)
(0.0141013 0 0)
(0.014207 0 0)
(0.0143298 0 0)
(0.0144877 0 0)
(0.0145946 0 0)
(0.0147014 0 0)
(0.0148207 0 0)
(0.0149105 0 0)
(0.015041 0 0)
(0.0151501 0 0)
(0.0152469 0 0)
(0.0153363 0 0)
(0.0154257 0 0)
(0.0155303 0 0)
(0.0156449 0 0)
(0.0157318 0 0)
(0.0158421 0 0)
(0.015932 0 0)
(0.0160251 0 0)
(0.0161015 0 0)
(0.016172 0 0)
(0.0162387 0 0)
(0.0163081 0 0)
(0.0164052 0 0)
(0.0165153 0 0)
(0.0166318 0 0)
(0.0167199 0 0)
(0.0168216 0 0)
(0.0169122 0 0)
(0.0169942 0 0)
(0.017099 0 0)
(0.0172061 0 0)
(0.0173054 0 0)
(0.0173742 0 0)
(0.0174661 0 0)
(0.0175583 0 0)
(0.0176163 0 0)
(0.0176855 0 0)
(0.0177645 0 0)
(0.0178468 0 0)
(0.0179237 0 0)
(0.0180014 0 0)
(0.0180742 0 0)
(0.0181125 0 0)
(0.0181689 0 0)
(0.0182357 0 0)
(0.0183192 0 0)
(0.0183814 0 0)
(0.018442 0 0)
(0.0185157 0 0)
(0.0185714 0 0)
(0.0186255 0 0)
(0.018677 0 0)
(0.0187468 0 0)
(0.0187838 0 0)
(0.0188676 0 0)
(0.0189297 0 0)
(0.0189872 0 0)
(0.0190299 0 0)
(0.0190726 0 0)
(0.0191598 0 0)
(0.019235 0 0)
(0.0192888 0 0)
(0.0193507 0 0)
(0.0193926 0 0)
(0.0194281 0 0)
(0.0194787 0 0)
(0.0195128 0 0)
(0.0195547 0 0)
(0.019612 0 0)
(0.0196525 0 0)
(0.0196999 0 0)
(0.0197336 0 0)
(0.0197688 0 0)
(0.0197849 0 0)
(0.0197912 0 0)
(0.0197575 0 0)
)
;

boundaryField
{
    inlet
    {
        type            fixedValue;
        value           uniform (0.005 0 0);
    }
    outlet
    {
        type            zeroGradient;
    }
    yzfaces
    {
        type            empty;
    }
}


// ************************************************************************* //
