/*--------------------------------*- C++ -*----------------------------------*\
| =========                 |                                                 |
| \\      /  F ield         | foam-extend: Open Source CFD                    |
|  \\    /   O peration     | Version:     5.0                                |
|   \\  /    A nd           | Web:         http://www.foam-extend.org         |
|    \\/     M anipulation  |                                                 |
\*---------------------------------------------------------------------------*/
FoamFile
{
    version     2.0;
    format      ascii;
    class       volVectorField;
    location    "8";
    object      U.water;
}
// * * * * * * * * * * * * * * * * * * * * * * * * * * * * * * * * * * * * * //

dimensions      [0 1 -1 0 0 0 0];

internalField   nonuniform List<vector> 
100
(
(9.86401e-06 0 0)
(1.5347e-05 0 0)
(3.39144e-05 0 0)
(5.74493e-05 0 0)
(6.28244e-05 0 0)
(8.77338e-05 0 0)
(9.5748e-05 0 0)
(0.000109417 0 0)
(0.000131277 0 0)
(0.000149667 0 0)
(0.000179488 0 0)
(0.000179749 0 0)
(0.00018707 0 0)
(0.000219465 0 0)
(0.000236561 0 0)
(0.000244075 0 0)
(0.000267631 0 0)
(0.000279808 0 0)
(0.000291942 0 0)
(0.000310222 0 0)
(0.000325967 0 0)
(0.000343193 0 0)
(0.00035755 0 0)
(0.000377864 0 0)
(0.000392057 0 0)
(0.000402032 0 0)
(0.000425166 0 0)
(0.000445462 0 0)
(0.000457993 0 0)
(0.000473922 0 0)
(0.00048271 0 0)
(0.000502225 0 0)
(0.000523153 0 0)
(0.000534328 0 0)
(0.000549239 0 0)
(0.000565301 0 0)
(0.000583853 0 0)
(0.000601706 0 0)
(0.000612097 0 0)
(0.000624358 0 0)
(0.000638929 0 0)
(0.000658564 0 0)
(0.00067717 0 0)
(0.000690125 0 0)
(0.000707099 0 0)
(0.000715212 0 0)
(0.000727523 0 0)
(0.00074651 0 0)
(0.000760691 0 0)
(0.000777159 0 0)
(0.000798091 0 0)
(0.000812915 0 0)
(0.000823771 0 0)
(0.000837995 0 0)
(0.000855541 0 0)
(0.000870417 0 0)
(0.000881417 0 0)
(0.000899388 0 0)
(0.000917866 0 0)
(0.000928888 0 0)
(0.000940675 0 0)
(0.000955517 0 0)
(0.00097417 0 0)
(0.000990129 0 0)
(0.00100119 0 0)
(0.00101484 0 0)
(0.0010255 0 0)
(0.00104177 0 0)
(0.00105919 0 0)
(0.0010716 0 0)
(0.00108561 0 0)
(0.00109644 0 0)
(0.00111143 0 0)
(0.00112805 0 0)
(0.00114167 0 0)
(0.00115411 0 0)
(0.0011692 0 0)
(0.00117959 0 0)
(0.0011945 0 0)
(0.00121307 0 0)
(0.00122552 0 0)
(0.00124218 0 0)
(0.00125271 0 0)
(0.00126539 0 0)
(0.00128443 0 0)
(0.00129843 0 0)
(0.00131209 0 0)
(0.00132711 0 0)
(0.0013384 0 0)
(0.0013539 0 0)
(0.00136782 0 0)
(0.00137682 0 0)
(0.00139236 0 0)
(0.00140995 0 0)
(0.00142418 0 0)
(0.00143783 0 0)
(0.00145081 0 0)
(0.00146244 0 0)
(0.00147662 0 0)
(0.00149085 0 0)
)
;

boundaryField
{
    inlet
    {
        type            fixedValue;
        value           uniform (0 0 0);
    }
    outlet
    {
        type            zeroGradient;
    }
    yzfaces
    {
        type            empty;
    }
}


// ************************************************************************* //
