/*--------------------------------*- C++ -*----------------------------------*\
| =========                 |                                                 |
| \\      /  F ield         | foam-extend: Open Source CFD                    |
|  \\    /   O peration     | Version:     5.0                                |
|   \\  /    A nd           | Web:         http://www.foam-extend.org         |
|    \\/     M anipulation  |                                                 |
\*---------------------------------------------------------------------------*/
FoamFile
{
    version     2.0;
    format      ascii;
    class       surfaceScalarField;
    location    "3";
    object      phi;
}
// * * * * * * * * * * * * * * * * * * * * * * * * * * * * * * * * * * * * * //

dimensions      [0 3 -1 0 0 0 0];

internalField   nonuniform List<scalar> 
99
(
1.22325e-06
1.22735e-06
1.22568e-06
1.2266e-06
1.22576e-06
1.22545e-06
1.22505e-06
1.22567e-06
1.2256e-06
1.22419e-06
1.2263e-06
1.22556e-06
1.21982e-06
1.22714e-06
1.22504e-06
1.23296e-06
1.22664e-06
1.23084e-06
1.24042e-06
1.22501e-06
1.22901e-06
1.2571e-06
1.22246e-06
1.19214e-06
1.1772e-06
1.16229e-06
1.14739e-06
1.13249e-06
1.14739e-06
1.13249e-06
1.14739e-06
1.17719e-06
1.13249e-06
1.13249e-06
1.14739e-06
1.13249e-06
1.13249e-06
1.13249e-06
1.16229e-06
1.11759e-06
1.16229e-06
1.08778e-06
1.08778e-06
1.05798e-06
1.02818e-06
1.02818e-06
1.02818e-06
9.98378e-07
9.83477e-07
9.83477e-07
9.68575e-07
9.68575e-07
9.83477e-07
9.98378e-07
1.01328e-06
1.02818e-06
1.02818e-06
1.08778e-06
1.08778e-06
1.10269e-06
1.10269e-06
1.10269e-06
1.14739e-06
1.16229e-06
1.17719e-06
1.14739e-06
1.13249e-06
1.13249e-06
1.17719e-06
1.19209e-06
1.16229e-06
1.14739e-06
1.14739e-06
1.16229e-06
1.19209e-06
1.20699e-06
1.19209e-06
1.19209e-06
1.20699e-06
1.20699e-06
1.17719e-06
1.14739e-06
1.11759e-06
1.10269e-06
1.10269e-06
1.10269e-06
1.14739e-06
1.10269e-06
1.10269e-06
1.11759e-06
1.11759e-06
1.10269e-06
1.13249e-06
1.11759e-06
1.11759e-06
1.13249e-06
1.10269e-06
1.10269e-06
1.08778e-06
)
;

boundaryField
{
    inlet
    {
        type            calculated;
        value           uniform -1.225e-06;
    }
    outlet
    {
        type            calculated;
        value           uniform 1.07288e-06;
    }
    yzfaces
    {
        type            empty;
    }
}


// ************************************************************************* //
