/*--------------------------------*- C++ -*----------------------------------*\
| =========                 |                                                 |
| \\      /  F ield         | foam-extend: Open Source CFD                    |
|  \\    /   O peration     | Version:     5.0                                |
|   \\  /    A nd           | Web:         http://www.foam-extend.org         |
|    \\/     M anipulation  |                                                 |
\*---------------------------------------------------------------------------*/
FoamFile
{
    version     2.0;
    format      ascii;
    class       volScalarField;
    location    "5";
    object      alpha.gas;
}
// * * * * * * * * * * * * * * * * * * * * * * * * * * * * * * * * * * * * * //

dimensions      [0 0 0 0 0 0 0];

internalField   nonuniform List<scalar> 
100
(
0.0843587
0.0827569
0.0811606
0.0796208
0.0781505
0.0768142
0.0754651
0.0740616
0.0727931
0.0714523
0.0701139
0.0689419
0.0677093
0.0665772
0.0655222
0.0644571
0.063459
0.0624781
0.0615405
0.0605634
0.0597452
0.0588841
0.0579909
0.0571586
0.0563817
0.0555805
0.0548631
0.0541757
0.0534585
0.0528012
0.0521101
0.0514757
0.0508888
0.0502635
0.0496847
0.0491109
0.0485517
0.0480186
0.0475465
0.046993
0.0465344
0.045963
0.0455278
0.0450581
0.0446133
0.0441855
0.0437421
0.0433037
0.042901
0.0424874
0.0420781
0.0416429
0.0412374
0.0408788
0.0404733
0.0401247
0.0397856
0.0394102
0.0390884
0.0387486
0.0384078
0.0380964
0.0377895
0.0374646
0.0371561
0.0368283
0.0365264
0.0362156
0.0359322
0.0356399
0.0353428
0.0350767
0.0347925
0.0345188
0.0342566
0.0340072
0.0337447
0.0334707
0.0332232
0.0329621
0.0326947
0.0324226
0.0321837
0.0319096
0.0316795
0.03144
0.0311839
0.0309576
0.030689
0.0304565
0.0302107
0.0299889
0.0297385
0.0295141
0.0292802
0.0290423
0.0288147
0.028625
0.0284251
0.028289
)
;

boundaryField
{
    inlet
    {
        type            fixedValue;
        value           uniform 0.2;
    }
    outlet
    {
        type            zeroGradient;
    }
    yzfaces
    {
        type            empty;
    }
}


// ************************************************************************* //
