/*--------------------------------*- C++ -*----------------------------------*\
| =========                 |                                                 |
| \\      /  F ield         | foam-extend: Open Source CFD                    |
|  \\    /   O peration     | Version:     5.0                                |
|   \\  /    A nd           | Web:         http://www.foam-extend.org         |
|    \\/     M anipulation  |                                                 |
\*---------------------------------------------------------------------------*/
FoamFile
{
    version     2.0;
    format      ascii;
    class       volVectorField;
    location    "5";
    object      U.gas;
}
// * * * * * * * * * * * * * * * * * * * * * * * * * * * * * * * * * * * * * //

dimensions      [0 1 -1 0 0 0 0];

internalField   nonuniform List<vector> 
100
(
(0.011856 0 0)
(0.0120558 0 0)
(0.0122789 0 0)
(0.0125286 0 0)
(0.0127502 0 0)
(0.0129393 0 0)
(0.0131466 0 0)
(0.0133513 0 0)
(0.0135184 0 0)
(0.0137174 0 0)
(0.0139516 0 0)
(0.0141829 0 0)
(0.014385 0 0)
(0.0145521 0 0)
(0.014729 0 0)
(0.0149198 0 0)
(0.0150872 0 0)
(0.0152682 0 0)
(0.015429 0 0)
(0.0156166 0 0)
(0.0157773 0 0)
(0.015919 0 0)
(0.0160692 0 0)
(0.0162078 0 0)
(0.0163451 0 0)
(0.0165038 0 0)
(0.0166519 0 0)
(0.0167941 0 0)
(0.0169471 0 0)
(0.0170892 0 0)
(0.0172717 0 0)
(0.0174376 0 0)
(0.0175393 0 0)
(0.0176557 0 0)
(0.0178074 0 0)
(0.017945 0 0)
(0.0180803 0 0)
(0.0182202 0 0)
(0.0182988 0 0)
(0.0184264 0 0)
(0.0185277 0 0)
(0.0186795 0 0)
(0.0187655 0 0)
(0.0188551 0 0)
(0.0189511 0 0)
(0.0190537 0 0)
(0.0191671 0 0)
(0.0192738 0 0)
(0.0193575 0 0)
(0.0194573 0 0)
(0.0195682 0 0)
(0.0196724 0 0)
(0.0197601 0 0)
(0.0198308 0 0)
(0.0199278 0 0)
(0.020008 0 0)
(0.0200833 0 0)
(0.0201517 0 0)
(0.0202075 0 0)
(0.0202973 0 0)
(0.020378 0 0)
(0.0204366 0 0)
(0.0204962 0 0)
(0.0205699 0 0)
(0.0206386 0 0)
(0.020692 0 0)
(0.0207398 0 0)
(0.0208189 0 0)
(0.0208668 0 0)
(0.0209257 0 0)
(0.0209979 0 0)
(0.0210466 0 0)
(0.0211016 0 0)
(0.0211433 0 0)
(0.0212082 0 0)
(0.0212717 0 0)
(0.0213017 0 0)
(0.0213419 0 0)
(0.0213825 0 0)
(0.0214345 0 0)
(0.0214886 0 0)
(0.0215313 0 0)
(0.0215519 0 0)
(0.0216131 0 0)
(0.0216183 0 0)
(0.0216212 0 0)
(0.0216772 0 0)
(0.0217051 0 0)
(0.0217477 0 0)
(0.021777 0 0)
(0.0218199 0 0)
(0.0218393 0 0)
(0.0218797 0 0)
(0.0219015 0 0)
(0.0219119 0 0)
(0.0219272 0 0)
(0.0219471 0 0)
(0.0219463 0 0)
(0.0219443 0 0)
(0.0218884 0 0)
)
;

boundaryField
{
    inlet
    {
        type            fixedValue;
        value           uniform (0.005 0 0);
    }
    outlet
    {
        type            zeroGradient;
    }
    yzfaces
    {
        type            empty;
    }
}


// ************************************************************************* //
