/*--------------------------------*- C++ -*----------------------------------*\
| =========                 |                                                 |
| \\      /  F ield         | foam-extend: Open Source CFD                    |
|  \\    /   O peration     | Version:     5.0                                |
|   \\  /    A nd           | Web:         http://www.foam-extend.org         |
|    \\/     M anipulation  |                                                 |
\*---------------------------------------------------------------------------*/
FoamFile
{
    version     2.0;
    format      ascii;
    class       volScalarField;
    location    "5";
    object      YH2O;
}
// * * * * * * * * * * * * * * * * * * * * * * * * * * * * * * * * * * * * * //

dimensions      [0 0 0 0 0 0 0];

internalField   nonuniform List<scalar> 
100
(
0.00370202
-0.00232766
0.00251209
-0.00369599
-0.00346162
0.00131254
0.00137394
-0.00187162
0.00229193
-0.000744847
-6.54159e-05
0.0011584
0.000538108
0.00182694
-0.0033337
-0.00176449
-0.00275634
-0.00089818
-0.000616515
-0.000852711
0.000821836
-0.000513381
0.00175793
-0.00311268
0.00171719
-0.000235522
0.00167469
0.00172697
0.00239817
-0.00142936
0.00305822
-0.00268427
0.000555477
-0.00167982
-0.00136889
-0.000235641
-0.00130513
-7.46938e-06
-0.00173879
-0.000850943
-0.00295938
-0.00127017
-0.00129078
-5.30402e-05
-0.000365432
0.000807117
0.000908029
0.00105626
-4.79963e-05
0.000675851
0.000391518
0.00242356
0.00015755
0.00138304
-0.000433132
0.00144898
0.000209808
0.000422829
0.000756992
-0.000314715
-0.00010886
-0.00144757
-0.0003337
-0.000917686
0.00033976
-4.51495e-05
0.00200088
0.00134161
-0.00124557
0.00252935
-0.00279408
0.00412538
-0.00344612
0.00381345
-0.00415521
0.00284291
-0.00358388
0.00295306
-0.004289
0.00334627
-0.00454279
0.00303991
-0.00448609
0.00261114
-0.00283536
0.001203
-0.00136014
-0.000340061
-0.000463114
-0.00404634
-0.000224229
-0.00842472
-0.00259245
-0.0140424
-0.0070359
-0.0223963
-0.0159383
-0.0337397
-0.0313386
-0.0490644
)
;

boundaryField
{
    inlet
    {
        type            calculated;
        value           uniform 0;
    }
    outlet
    {
        type            calculated;
        value           uniform -0.0490644;
    }
    yzfaces
    {
        type            empty;
    }
}


// ************************************************************************* //
