/*--------------------------------*- C++ -*----------------------------------*\
| =========                 |                                                 |
| \\      /  F ield         | foam-extend: Open Source CFD                    |
|  \\    /   O peration     | Version:     5.0                                |
|   \\  /    A nd           | Web:         http://www.foam-extend.org         |
|    \\/     M anipulation  |                                                 |
\*---------------------------------------------------------------------------*/
FoamFile
{
    version     2.0;
    format      ascii;
    class       volScalarField;
    location    "7";
    object      alpha.gas;
}
// * * * * * * * * * * * * * * * * * * * * * * * * * * * * * * * * * * * * * //

dimensions      [0 0 0 0 0 0 0];

internalField   nonuniform List<scalar> 
100
(
0.0884333
0.0869801
0.0856525
0.0843118
0.0830044
0.0817572
0.0804308
0.079303
0.0781228
0.0769232
0.0758914
0.0746713
0.0735555
0.0724464
0.0714666
0.0704502
0.0695149
0.068592
0.0676523
0.0667734
0.0659399
0.0650921
0.0643209
0.0635567
0.06277
0.0619849
0.0612787
0.0605782
0.0598819
0.0592273
0.0585415
0.0579292
0.0572982
0.0567205
0.0560917
0.0555192
0.0550251
0.0544522
0.0539394
0.0533945
0.0528853
0.0524017
0.0518867
0.0514338
0.0509392
0.0504896
0.0500365
0.0495897
0.0491893
0.048825
0.0484258
0.0480304
0.0476262
0.0472202
0.0468726
0.0464992
0.0460911
0.0457451
0.0454204
0.0450913
0.0447231
0.0444071
0.0440534
0.0437716
0.0434347
0.0431201
0.0428064
0.042513
0.0422144
0.041904
0.0415972
0.0413367
0.0410563
0.0407926
0.0405369
0.0402623
0.0399936
0.0397186
0.0394421
0.0391981
0.0389635
0.0387027
0.0384736
0.0382192
0.0379568
0.0377308
0.037513
0.0372671
0.0370216
0.0367786
0.0365612
0.0363527
0.0361465
0.0359206
0.0357121
0.0354926
0.0352749
0.0351121
0.0349729
0.0348692
)
;

boundaryField
{
    inlet
    {
        type            fixedValue;
        value           uniform 0.2;
    }
    outlet
    {
        type            zeroGradient;
    }
    yzfaces
    {
        type            empty;
    }
}


// ************************************************************************* //
