/*--------------------------------*- C++ -*----------------------------------*\
| =========                 |                                                 |
| \\      /  F ield         | foam-extend: Open Source CFD                    |
|  \\    /   O peration     | Version:     5.0                                |
|   \\  /    A nd           | Web:         http://www.foam-extend.org         |
|    \\/     M anipulation  |                                                 |
\*---------------------------------------------------------------------------*/
FoamFile
{
    version     2.0;
    format      ascii;
    class       surfaceScalarField;
    location    "7";
    object      phi;
}
// * * * * * * * * * * * * * * * * * * * * * * * * * * * * * * * * * * * * * //

dimensions      [0 3 -1 0 0 0 0];

internalField   nonuniform List<scalar> 
99
(
1.22502e-06
1.23133e-06
1.23275e-06
1.23463e-06
1.23293e-06
1.21868e-06
1.2335e-06
1.22786e-06
1.22824e-06
1.23781e-06
1.22429e-06
1.23028e-06
1.22758e-06
1.23471e-06
1.23633e-06
1.24017e-06
1.24269e-06
1.2395e-06
1.24149e-06
1.23892e-06
1.23949e-06
1.24372e-06
1.24303e-06
1.24031e-06
1.24165e-06
1.24208e-06
1.24208e-06
1.24383e-06
1.24253e-06
1.23947e-06
1.24224e-06
1.23978e-06
1.24383e-06
1.2377e-06
1.23983e-06
1.24245e-06
1.24144e-06
1.24357e-06
1.24111e-06
1.23915e-06
1.2404e-06
1.23705e-06
1.23668e-06
1.23434e-06
1.23763e-06
1.23454e-06
1.23494e-06
1.2394e-06
1.24221e-06
1.23621e-06
1.23694e-06
1.23645e-06
1.23756e-06
1.23949e-06
1.2374e-06
1.23677e-06
1.23929e-06
1.24075e-06
1.24024e-06
1.24051e-06
1.24323e-06
1.2395e-06
1.24236e-06
1.23848e-06
1.24006e-06
1.23707e-06
1.24092e-06
1.23992e-06
1.23851e-06
1.23843e-06
1.24168e-06
1.24038e-06
1.23909e-06
1.23874e-06
1.23759e-06
1.23676e-06
1.23656e-06
1.23689e-06
1.23846e-06
1.23768e-06
1.23553e-06
1.23828e-06
1.23776e-06
1.23616e-06
1.23899e-06
1.238e-06
1.2367e-06
1.23587e-06
1.2368e-06
1.23685e-06
1.23566e-06
1.23646e-06
1.2364e-06
1.23674e-06
1.23604e-06
1.23524e-06
1.23938e-06
1.23829e-06
1.23524e-06
)
;

boundaryField
{
    inlet
    {
        type            calculated;
        value           uniform -1.225e-06;
    }
    outlet
    {
        type            calculated;
        value           uniform 1.2347e-06;
    }
    yzfaces
    {
        type            empty;
    }
}


// ************************************************************************* //
