/*--------------------------------*- C++ -*----------------------------------*\
| =========                 |                                                 |
| \\      /  F ield         | foam-extend: Open Source CFD                    |
|  \\    /   O peration     | Version:     5.0                                |
|   \\  /    A nd           | Web:         http://www.foam-extend.org         |
|    \\/     M anipulation  |                                                 |
\*---------------------------------------------------------------------------*/
FoamFile
{
    version     2.0;
    format      ascii;
    class       volVectorField;
    location    "7";
    object      U.gas;
}
// * * * * * * * * * * * * * * * * * * * * * * * * * * * * * * * * * * * * * //

dimensions      [0 1 -1 0 0 0 0];

internalField   nonuniform List<vector> 
100
(
(0.0113037 0 0)
(0.0114952 0 0)
(0.0116799 0 0)
(0.0118612 0 0)
(0.0120191 0 0)
(0.0121071 0 0)
(0.0122735 0 0)
(0.0124546 0 0)
(0.0126027 0 0)
(0.0128067 0 0)
(0.0129382 0 0)
(0.013094 0 0)
(0.0132658 0 0)
(0.0134444 0 0)
(0.0136331 0 0)
(0.0138218 0 0)
(0.0139978 0 0)
(0.0141494 0 0)
(0.0142975 0 0)
(0.0144316 0 0)
(0.0145621 0 0)
(0.0147331 0 0)
(0.0148802 0 0)
(0.0150042 0 0)
(0.0151478 0 0)
(0.0152942 0 0)
(0.015416 0 0)
(0.0155619 0 0)
(0.0156954 0 0)
(0.0157952 0 0)
(0.0159259 0 0)
(0.0160413 0 0)
(0.0161763 0 0)
(0.0162798 0 0)
(0.016386 0 0)
(0.0165127 0 0)
(0.0166248 0 0)
(0.0167617 0 0)
(0.0168625 0 0)
(0.0169523 0 0)
(0.0170466 0 0)
(0.0171384 0 0)
(0.017222 0 0)
(0.0172964 0 0)
(0.0174159 0 0)
(0.017509 0 0)
(0.0175911 0 0)
(0.0177154 0 0)
(0.0178394 0 0)
(0.017898 0 0)
(0.017961 0 0)
(0.0180538 0 0)
(0.0181537 0 0)
(0.0182583 0 0)
(0.0183265 0 0)
(0.0184075 0 0)
(0.0185146 0 0)
(0.0186029 0 0)
(0.0186798 0 0)
(0.0187637 0 0)
(0.018873 0 0)
(0.0189324 0 0)
(0.0190058 0 0)
(0.0190527 0 0)
(0.0191252 0 0)
(0.0191802 0 0)
(0.0192558 0 0)
(0.0193423 0 0)
(0.0193974 0 0)
(0.0194601 0 0)
(0.0195452 0 0)
(0.0196091 0 0)
(0.0196565 0 0)
(0.0196963 0 0)
(0.019744 0 0)
(0.0197968 0 0)
(0.0198491 0 0)
(0.0199145 0 0)
(0.0199852 0 0)
(0.0200334 0 0)
(0.0200636 0 0)
(0.0201296 0 0)
(0.0201931 0 0)
(0.0202418 0 0)
(0.0203038 0 0)
(0.0203526 0 0)
(0.0203833 0 0)
(0.0204298 0 0)
(0.0204821 0 0)
(0.020533 0 0)
(0.0205564 0 0)
(0.0205922 0 0)
(0.0206442 0 0)
(0.0206961 0 0)
(0.0207303 0 0)
(0.0207666 0 0)
(0.0208226 0 0)
(0.0208511 0 0)
(0.0208254 0 0)
(0.0207717 0 0)
)
;

boundaryField
{
    inlet
    {
        type            fixedValue;
        value           uniform (0.005 0 0);
    }
    outlet
    {
        type            zeroGradient;
    }
    yzfaces
    {
        type            empty;
    }
}


// ************************************************************************* //
