/*--------------------------------*- C++ -*----------------------------------*\
| =========                 |                                                 |
| \\      /  F ield         | foam-extend: Open Source CFD                    |
|  \\    /   O peration     | Version:     5.0                                |
|   \\  /    A nd           | Web:         http://www.foam-extend.org         |
|    \\/     M anipulation  |                                                 |
\*---------------------------------------------------------------------------*/
FoamFile
{
    version     2.0;
    format      ascii;
    class       volVectorField;
    location    "7";
    object      U.water;
}
// * * * * * * * * * * * * * * * * * * * * * * * * * * * * * * * * * * * * * //

dimensions      [0 1 -1 0 0 0 0];

internalField   nonuniform List<vector> 
100
(
(3.39763e-06 0 0)
(2.42503e-05 0 0)
(4.6658e-05 0 0)
(6.09687e-05 0 0)
(8.1411e-05 0 0)
(9.14299e-05 0 0)
(0.000114771 0 0)
(0.000140432 0 0)
(0.000147098 0 0)
(0.000174027 0 0)
(0.000185652 0 0)
(0.000192454 0 0)
(0.000216994 0 0)
(0.000243193 0 0)
(0.000266657 0 0)
(0.000286088 0 0)
(0.000309271 0 0)
(0.000324206 0 0)
(0.000342978 0 0)
(0.000366061 0 0)
(0.000383218 0 0)
(0.0004043 0 0)
(0.000426687 0 0)
(0.000439669 0 0)
(0.000453391 0 0)
(0.000476425 0 0)
(0.000499326 0 0)
(0.000516065 0 0)
(0.00053504 0 0)
(0.000550913 0 0)
(0.0005699 0 0)
(0.000589912 0 0)
(0.000608579 0 0)
(0.000624431 0 0)
(0.000640117 0 0)
(0.000667218 0 0)
(0.000683224 0 0)
(0.000697901 0 0)
(0.000716126 0 0)
(0.000731174 0 0)
(0.000751456 0 0)
(0.000766417 0 0)
(0.000783804 0 0)
(0.000800746 0 0)
(0.000817226 0 0)
(0.000836255 0 0)
(0.000851911 0 0)
(0.000873816 0 0)
(0.000897781 0 0)
(0.000911053 0 0)
(0.000921474 0 0)
(0.000937111 0 0)
(0.000952983 0 0)
(0.000974457 0 0)
(0.000992402 0 0)
(0.00100281 0 0)
(0.00102192 0 0)
(0.00104547 0 0)
(0.00106227 0 0)
(0.00107463 0 0)
(0.00109297 0 0)
(0.00110948 0 0)
(0.00112688 0 0)
(0.00114334 0 0)
(0.00115577 0 0)
(0.001173 0 0)
(0.0011906 0 0)
(0.00120828 0 0)
(0.00122162 0 0)
(0.00123685 0 0)
(0.00125796 0 0)
(0.00127634 0 0)
(0.0012898 0 0)
(0.00130583 0 0)
(0.00131932 0 0)
(0.00133264 0 0)
(0.00134794 0 0)
(0.00136381 0 0)
(0.00138324 0 0)
(0.00140174 0 0)
(0.00141413 0 0)
(0.00142996 0 0)
(0.00144698 0 0)
(0.00145963 0 0)
(0.00147862 0 0)
(0.00149811 0 0)
(0.00151054 0 0)
(0.00152307 0 0)
(0.00153991 0 0)
(0.0015591 0 0)
(0.00157625 0 0)
(0.0015915 0 0)
(0.00160581 0 0)
(0.00162135 0 0)
(0.0016372 0 0)
(0.00165113 0 0)
(0.00167267 0 0)
(0.00169308 0 0)
(0.00170445 0 0)
(0.00171892 0 0)
)
;

boundaryField
{
    inlet
    {
        type            fixedValue;
        value           uniform (0 0 0);
    }
    outlet
    {
        type            zeroGradient;
    }
    yzfaces
    {
        type            empty;
    }
}


// ************************************************************************* //
