/*--------------------------------*- C++ -*----------------------------------*\
| =========                 |                                                 |
| \\      /  F ield         | foam-extend: Open Source CFD                    |
|  \\    /   O peration     | Version:     5.0                                |
|   \\  /    A nd           | Web:         http://www.foam-extend.org         |
|    \\/     M anipulation  |                                                 |
\*---------------------------------------------------------------------------*/
FoamFile
{
    version     2.0;
    format      ascii;
    class       surfaceScalarField;
    location    "9";
    object      phi;
}
// * * * * * * * * * * * * * * * * * * * * * * * * * * * * * * * * * * * * * //

dimensions      [0 3 -1 0 0 0 0];

internalField   nonuniform List<scalar> 
99
(
1.22752e-06
1.22885e-06
1.22707e-06
1.22675e-06
1.22606e-06
1.22742e-06
1.23459e-06
1.22871e-06
1.23102e-06
1.22993e-06
1.22764e-06
1.22956e-06
1.22536e-06
1.22476e-06
1.22879e-06
1.22973e-06
1.24204e-06
1.23465e-06
1.24181e-06
1.24064e-06
1.24156e-06
1.23811e-06
1.23383e-06
1.23169e-06
1.24423e-06
1.23939e-06
1.23645e-06
1.23814e-06
1.23684e-06
1.23659e-06
1.23542e-06
1.23457e-06
1.23611e-06
1.23195e-06
1.23163e-06
1.23257e-06
1.22792e-06
1.22854e-06
1.23288e-06
1.22747e-06
1.2316e-06
1.2328e-06
1.22967e-06
1.22873e-06
1.23219e-06
1.22757e-06
1.22962e-06
1.22635e-06
1.22924e-06
1.2297e-06
1.22783e-06
1.22833e-06
1.22981e-06
1.22866e-06
1.22632e-06
1.22939e-06
1.22901e-06
1.22831e-06
1.22999e-06
1.22838e-06
1.23142e-06
1.22783e-06
1.22731e-06
1.22943e-06
1.22893e-06
1.22707e-06
1.22518e-06
1.22535e-06
1.22832e-06
1.22629e-06
1.22551e-06
1.22818e-06
1.22516e-06
1.22747e-06
1.22551e-06
1.22684e-06
1.22645e-06
1.22735e-06
1.22927e-06
1.22756e-06
1.22538e-06
1.22883e-06
1.22825e-06
1.22834e-06
1.2282e-06
1.22865e-06
1.22788e-06
1.22732e-06
1.22638e-06
1.22809e-06
1.22617e-06
1.22744e-06
1.22751e-06
1.2278e-06
1.22535e-06
1.22655e-06
1.22776e-06
1.22913e-06
1.22935e-06
)
;

boundaryField
{
    inlet
    {
        type            calculated;
        value           uniform -1.225e-06;
    }
    outlet
    {
        type            calculated;
        value           uniform 1.22485e-06;
    }
    yzfaces
    {
        type            empty;
    }
}


// ************************************************************************* //
