/*--------------------------------*- C++ -*----------------------------------*\
| =========                 |                                                 |
| \\      /  F ield         | foam-extend: Open Source CFD                    |
|  \\    /   O peration     | Version:     5.0                                |
|   \\  /    A nd           | Web:         http://www.foam-extend.org         |
|    \\/     M anipulation  |                                                 |
\*---------------------------------------------------------------------------*/
FoamFile
{
    version     2.0;
    format      ascii;
    class       volVectorField;
    location    "2";
    object      U.gas;
}
// * * * * * * * * * * * * * * * * * * * * * * * * * * * * * * * * * * * * * //

dimensions      [0 1 -1 0 0 0 0];

internalField   nonuniform List<vector> 
100
(
(0.000484163 0 0)
(0.00110866 0 0)
(0.00176174 0 0)
(0.00252746 0 0)
(0.0035342 0 0)
(0.00492548 0 0)
(0.00594721 0 0)
(0.00555081 0 0)
(0.00522531 0 0)
(0.00508493 0 0)
(0.0050447 0 0)
(0.00502377 0 0)
(0.00504606 0 0)
(0.00503499 0 0)
(0.00498278 0 0)
(0.00493246 0 0)
(0.00491842 0 0)
(0.00490586 0 0)
(0.00486656 0 0)
(0.00489618 0 0)
(0.0048961 0 0)
(0.00483528 0 0)
(0.00486569 0 0)
(0.0048961 0 0)
(0.00492651 0 0)
(0.00507856 0 0)
(0.00507856 0 0)
(0.00504815 0 0)
(0.00510897 0 0)
(0.00510897 0 0)
(0.00507856 0 0)
(0.00510897 0 0)
(0.00504815 0 0)
(0.0048961 0 0)
(0.00483527 0 0)
(0.00477445 0 0)
(0.00477445 0 0)
(0.00477445 0 0)
(0.00471363 0 0)
(0.00468322 0 0)
(0.00477445 0 0)
(0.00477445 0 0)
(0.00468322 0 0)
(0.0046224 0 0)
(0.00453117 0 0)
(0.00450076 0 0)
(0.00443994 0 0)
(0.00443994 0 0)
(0.00453117 0 0)
(0.00456158 0 0)
(0.00456158 0 0)
(0.00453117 0 0)
(0.00447035 0 0)
(0.00447035 0 0)
(0.00447035 0 0)
(0.00447035 0 0)
(0.00456158 0 0)
(0.00456158 0 0)
(0.00453117 0 0)
(0.00447035 0 0)
(0.0043183 0 0)
(0.00428789 0 0)
(0.0043183 0 0)
(0.00428789 0 0)
(0.00422706 0 0)
(0.0043183 0 0)
(0.00443994 0 0)
(0.00443994 0 0)
(0.00440953 0 0)
(0.00437912 0 0)
(0.00434871 0 0)
(0.00434871 0 0)
(0.00437912 0 0)
(0.00440953 0 0)
(0.00447035 0 0)
(0.00450076 0 0)
(0.00447035 0 0)
(0.00443994 0 0)
(0.00447035 0 0)
(0.00450076 0 0)
(0.00456158 0 0)
(0.0046224 0 0)
(0.00456158 0 0)
(0.00456158 0 0)
(0.0046224 0 0)
(0.00459199 0 0)
(0.00456158 0 0)
(0.00465281 0 0)
(0.00474404 0 0)
(0.00474404 0 0)
(0.00468322 0 0)
(0.0046224 0 0)
(0.0046224 0 0)
(0.00456158 0 0)
(0.00450076 0 0)
(0.00447035 0 0)
(0.00440953 0 0)
(0.00434871 0 0)
(0.00434871 0 0)
(0.00443994 0 0)
)
;

boundaryField
{
    inlet
    {
        type            fixedValue;
        value           uniform (0 0 0);
    }
    outlet
    {
        type            zeroGradient;
    }
    yzfaces
    {
        type            empty;
    }
}


// ************************************************************************* //
