/*--------------------------------*- C++ -*----------------------------------*\
| =========                 |                                                 |
| \\      /  F ield         | foam-extend: Open Source CFD                    |
|  \\    /   O peration     | Version:     5.0                                |
|   \\  /    A nd           | Web:         http://www.foam-extend.org         |
|    \\/     M anipulation  |                                                 |
\*---------------------------------------------------------------------------*/
FoamFile
{
    version     2.0;
    format      ascii;
    class       volScalarField;
    location    "2";
    object      XH2O;
}
// * * * * * * * * * * * * * * * * * * * * * * * * * * * * * * * * * * * * * //

dimensions      [0 0 0 0 0 0 0];

internalField   nonuniform List<scalar> 
100
(
0.997949
0.995598
0.98905
0.986966
0.986618
0.960829
0.927732
0.817835
0.673171
0.526777
0.41205
0.289654
0.19906
0.122686
0.069192
0.0320958
0.0104947
0.00204725
0.000178063
1.4746e-05
1.03467e-06
7.95889e-09
4.79105e-12
2.31245e-16
9.11093e-22
2.90605e-28
7.46901e-36
1.53008e-44
2.53632e-54
3.37042e-65
3.57234e-77
2.98419e-90
2.00568e-104
1.05408e-119
4.38855e-136
1.43878e-153
3.71829e-172
7.55999e-192
1.20719e-212
1.50493e-234
1.45994e-257
1.11772e-281
6.58877e-307
0
0
0
0
0
0
0
0
0
0
0
0
0
0
0
0
0
0
0
0
0
0
0
0
0
0
0
0
0
0
0
0
0
0
0
0
0
0
0
0
0
0
0
0
0
0
0
0
0
0
0
0
0
0
0
0
0
)
;

boundaryField
{
    inlet
    {
        type            fixedValue;
        value           uniform 1;
    }
    outlet
    {
        type            zeroGradient;
    }
    yzfaces
    {
        type            empty;
    }
}


// ************************************************************************* //
