/*--------------------------------*- C++ -*----------------------------------*\
| =========                 |                                                 |
| \\      /  F ield         | foam-extend: Open Source CFD                    |
|  \\    /   O peration     | Version:     5.0                                |
|   \\  /    A nd           | Web:         http://www.foam-extend.org         |
|    \\/     M anipulation  |                                                 |
\*---------------------------------------------------------------------------*/
FoamFile
{
    version     2.0;
    format      ascii;
    class       volScalarField;
    location    "2";
    object      YH2O;
}
// * * * * * * * * * * * * * * * * * * * * * * * * * * * * * * * * * * * * * //

dimensions      [0 0 0 0 0 0 0];

internalField   nonuniform List<scalar> 
100
(
0.986398
1.01873
0.978313
0.995035
0.964503
0.999369
0.887497
0.854575
0.635898
0.550271
0.373845
0.313673
0.208909
0.124724
0.0791048
-0.0223315
0.0275861
0.0559423
0.00130554
0.0773746
-0.0338001
0.0111908
0.050675
-0.0619979
0.0614111
-0.0248883
0.0255109
-0.0278658
0.0336858
0.0454151
0.0133118
0.0458702
-0.0161501
0.00224146
0.00277763
-0.0113729
0.00182973
0.0227176
-0.043521
0.00361892
0.0115169
0.0219475
-0.00069457
0.0349547
-0.0418494
0.0198911
-0.0264767
-0.0291691
-0.00237433
0.0133984
-0.0379832
-0.00533448
-0.0265807
0.0135727
-0.00727913
-0.0248535
0.00822626
-0.0208393
0.0080475
-0.0232593
0.0150657
0.00990286
-0.0361968
-0.0237
0.032576
0.0117756
-0.000233413
-0.00133281
-0.0159302
-0.000856896
-0.0477937
-0.00647398
-0.0385705
0.0271457
0.0114609
0.00694035
-0.00386703
0.00643326
0.0242037
-0.0181866
-0.00809241
0.0175174
-0.0269048
0.0435741
-0.0112809
-0.00133154
-0.0109584
0.0239739
-0.01088
0.0213637
-0.0318947
-0.0292266
-0.0136815
0.0156609
-0.0639217
-0.0288536
-0.0188742
-0.0137788
0.0130701
0.0134358
)
;

boundaryField
{
    inlet
    {
        type            calculated;
        value           uniform 1;
    }
    outlet
    {
        type            calculated;
        value           uniform 0.0134358;
    }
    yzfaces
    {
        type            empty;
    }
}


// ************************************************************************* //
