/*--------------------------------*- C++ -*----------------------------------*\
| =========                 |                                                 |
| \\      /  F ield         | foam-extend: Open Source CFD                    |
|  \\    /   O peration     | Version:     5.0                                |
|   \\  /    A nd           | Web:         http://www.foam-extend.org         |
|    \\/     M anipulation  |                                                 |
\*---------------------------------------------------------------------------*/
FoamFile
{
    version     2.0;
    format      ascii;
    class       regIOobject;
    location    "10/uniform";
    object      profilingInfo;
}
// * * * * * * * * * * * * * * * * * * * * * * * * * * * * * * * * * * * * * //

profilingInfo
(

    {
        id              8;
        parentId        7;
        description     "Foam::Time::writeObject - outputTime";
        calls           10;
        totalTime       0.544709;
        childTime       0;
        onStack         1;
    }

    {
        id              7;
        parentId        1;
        description     "Foam::Time::writeObject";
        calls           119;
        totalTime       0.545086;
        childTime       0.544709;
        onStack         1;
    }

    {
        id              1;
        description     "application::main";
        calls           1;
        totalTime       4.29847;
        childTime       0.563788;
        onStack         1;
    }

    {
        id              2;
        parentId        1;
        description     "functionObjectList::read";
        calls           1;
        totalTime       2.9e-05;
        childTime       0;
        onStack         0;
    }

    {
        id              3;
        parentId        1;
        description     "fvMatrix::solve_XH2O";
        calls           119;
        totalTime       0.011065;
        childTime       0.002944;
        onStack         0;
    }

    {
        id              5;
        parentId        1;
        description     "fvMatrix::solve_YCO2";
        calls           119;
        totalTime       0.007608;
        childTime       0.001506;
        onStack         0;
    }

    {
        id              4;
        parentId        3;
        description     "lduMatrix::solver_XH2O";
        calls           119;
        totalTime       0.002944;
        childTime       0;
        onStack         0;
    }

    {
        id              6;
        parentId        5;
        description     "lduMatrix::solver_YCO2";
        calls           119;
        totalTime       0.001506;
        childTime       0;
        onStack         0;
    }
);


// ************************************************************************* //
