/*--------------------------------*- C++ -*----------------------------------*\
| =========                 |                                                 |
| \\      /  F ield         | foam-extend: Open Source CFD                    |
|  \\    /   O peration     | Version:     5.0                                |
|   \\  /    A nd           | Web:         http://www.foam-extend.org         |
|    \\/     M anipulation  |                                                 |
\*---------------------------------------------------------------------------*/
FoamFile
{
    version     2.0;
    format      ascii;
    class       surfaceScalarField;
    location    "10";
    object      phi;
}
// * * * * * * * * * * * * * * * * * * * * * * * * * * * * * * * * * * * * * //

dimensions      [0 3 -1 0 0 0 0];

internalField   nonuniform List<scalar> 
99
(
1.22481e-06
1.22403e-06
1.2254e-06
1.22657e-06
1.22519e-06
1.22429e-06
1.22572e-06
1.226e-06
1.22397e-06
1.22636e-06
1.2241e-06
1.22511e-06
1.2252e-06
1.22319e-06
1.22493e-06
1.22526e-06
1.22538e-06
1.2262e-06
1.22423e-06
1.22717e-06
1.22521e-06
1.2242e-06
1.22601e-06
1.22338e-06
1.22473e-06
1.22447e-06
1.22468e-06
1.22326e-06
1.22633e-06
1.22449e-06
1.22525e-06
1.22348e-06
1.22383e-06
1.22517e-06
1.22493e-06
1.22546e-06
1.22472e-06
1.22435e-06
1.22569e-06
1.22433e-06
1.22513e-06
1.22615e-06
1.22638e-06
1.22516e-06
1.22431e-06
1.22655e-06
1.22502e-06
1.2235e-06
1.23046e-06
1.21578e-06
1.23124e-06
1.23559e-06
1.24834e-06
1.25018e-06
1.20455e-06
1.2417e-06
1.21473e-06
1.22293e-06
1.17726e-06
1.2368e-06
1.20699e-06
1.20699e-06
1.2219e-06
1.2368e-06
1.20699e-06
1.2517e-06
1.19209e-06
1.2219e-06
1.2219e-06
1.2517e-06
1.2517e-06
1.2666e-06
1.2815e-06
1.2666e-06
1.2815e-06
1.2964e-06
1.2666e-06
1.2815e-06
1.2666e-06
1.2815e-06
1.2815e-06
1.2964e-06
1.2666e-06
1.2964e-06
1.2368e-06
1.2517e-06
1.2666e-06
1.2964e-06
1.2815e-06
1.2815e-06
1.2666e-06
1.2964e-06
1.2964e-06
1.2964e-06
1.2964e-06
1.2815e-06
1.3113e-06
1.3411e-06
1.3411e-06
)
;

boundaryField
{
    inlet
    {
        type            calculated;
        value           uniform -1.225e-06;
    }
    outlet
    {
        type            calculated;
        value           uniform 1.3411e-06;
    }
    yzfaces
    {
        type            empty;
    }
}


// ************************************************************************* //
