/*--------------------------------*- C++ -*----------------------------------*\
| =========                 |                                                 |
| \\      /  F ield         | foam-extend: Open Source CFD                    |
|  \\    /   O peration     | Version:     5.0                                |
|   \\  /    A nd           | Web:         http://www.foam-extend.org         |
|    \\/     M anipulation  |                                                 |
\*---------------------------------------------------------------------------*/
FoamFile
{
    version     2.0;
    format      ascii;
    class       volScalarField;
    location    "5";
    object      XCO2;
}
// * * * * * * * * * * * * * * * * * * * * * * * * * * * * * * * * * * * * * //

dimensions      [0 0 0 0 0 0 0];

internalField   nonuniform List<scalar> 
100
(
-0.00442453
0.00341643
-0.00169752
6.45035e-07
0.00300756
-0.00385362
0.00514903
-0.00417129
0.00258379
0.000555785
-0.00176904
0.00196099
-0.00294155
0.000636589
0.00142349
0.00377315
-0.00455137
0.00541761
-0.0173285
0.0019653
-0.0145521
0.0277135
0.0447437
0.0994992
0.166431
0.213283
0.307184
0.387807
0.444735
0.472561
0.485457
0.508265
0.544196
0.489972
0.488754
0.489082
0.568199
0.464477
0.52418
0.520476
0.475355
0.479073
0.541766
0.469455
0.465965
0.561012
0.489594
0.519402
0.487648
0.493108
0.518719
0.510305
0.500314
0.526302
0.492775
0.498537
0.500787
0.489635
0.47248
0.502391
0.460929
0.5455
0.493716
0.485481
0.497724
0.485328
0.533968
0.465301
0.529568
0.499771
0.503528
0.485321
0.497815
0.505814
0.462936
0.537606
0.505496
0.503826
0.493039
0.525919
0.519026
0.486836
0.498427
0.457514
0.499774
0.440415
0.526599
0.423815
0.598088
0.467016
0.557468
0.488746
0.462491
0.531249
0.503917
0.480449
0.566656
0.435777
0.614629
0.295408
)
;

boundaryField
{
    inlet
    {
        type            fixedValue;
        value           uniform 0;
    }
    outlet
    {
        type            zeroGradient;
    }
    yzfaces
    {
        type            empty;
    }
}


// ************************************************************************* //
