/*--------------------------------*- C++ -*----------------------------------*\
| =========                 |                                                 |
| \\      /  F ield         | foam-extend: Open Source CFD                    |
|  \\    /   O peration     | Version:     5.0                                |
|   \\  /    A nd           | Web:         http://www.foam-extend.org         |
|    \\/     M anipulation  |                                                 |
\*---------------------------------------------------------------------------*/
FoamFile
{
    version     2.0;
    format      ascii;
    class       volVectorField;
    location    "10";
    object      U.water;
}
// * * * * * * * * * * * * * * * * * * * * * * * * * * * * * * * * * * * * * //

dimensions      [0 1 -1 0 0 0 0];

internalField   nonuniform List<vector> 
100
(
(0.00500296 0 0)
(0.00500496 0 0)
(0.00500533 0 0)
(0.00500391 0 0)
(0.00500538 0 0)
(0.00501018 0 0)
(0.00501117 0 0)
(0.00500885 0 0)
(0.00500798 0 0)
(0.00500616 0 0)
(0.00500624 0 0)
(0.00500965 0 0)
(0.00501449 0 0)
(0.00501458 0 0)
(0.00501087 0 0)
(0.00501144 0 0)
(0.005012 0 0)
(0.00501209 0 0)
(0.00501076 0 0)
(0.00500801 0 0)
(0.00501197 0 0)
(0.00500924 0 0)
(0.00500936 0 0)
(0.00501766 0 0)
(0.00501305 0 0)
(0.0050075 0 0)
(0.00501252 0 0)
(0.00501419 0 0)
(0.00501302 0 0)
(0.00500858 0 0)
(0.00500506 0 0)
(0.00501122 0 0)
(0.00501407 0 0)
(0.00500883 0 0)
(0.00500658 0 0)
(0.00501263 0 0)
(0.0050126 0 0)
(0.00500801 0 0)
(0.00500758 0 0)
(0.00501049 0 0)
(0.00501118 0 0)
(0.00501103 0 0)
(0.00501113 0 0)
(0.00501523 0 0)
(0.00501565 0 0)
(0.00500967 0 0)
(0.00500599 0 0)
(0.00499876 0 0)
(0.0049584 0 0)
(0.00485493 0 0)
(0.00477727 0 0)
(0.00468419 0 0)
(0.00454781 0 0)
(0.00438149 0 0)
(0.00414849 0 0)
(0.00385318 0 0)
(0.00341607 0 0)
(0.00282081 0 0)
(0.00210421 0 0)
(0.00139109 0 0)
(0.000787111 0 0)
(0.000439951 0 0)
(0.000229607 0 0)
(0.000121924 0 0)
(6.358e-05 0 0)
(3.41511e-05 0 0)
(3.59663e-05 0 0)
(3.82603e-05 0 0)
(-7.76317e-07 0 0)
(-1.96436e-05 0 0)
(1.48256e-05 0 0)
(2.40699e-05 0 0)
(1.11076e-05 0 0)
(-1.58752e-05 0 0)
(3.10563e-06 0 0)
(3.1321e-05 0 0)
(-4.77106e-06 0 0)
(-1.58652e-05 0 0)
(-1.27273e-05 0 0)
(-9.50887e-06 0 0)
(-3.10435e-06 0 0)
(-2.92186e-06 0 0)
(8.8423e-06 0 0)
(2.58774e-06 0 0)
(-2.39841e-05 0 0)
(-2.62711e-06 0 0)
(2.56963e-05 0 0)
(-4.01446e-06 0 0)
(-2.46124e-05 0 0)
(-2.12071e-05 0 0)
(-1.62776e-05 0 0)
(-1.13266e-05 0 0)
(-6.90784e-06 0 0)
(6.97693e-06 0 0)
(3.51607e-06 0 0)
(-3.17322e-05 0 0)
(-1.71993e-05 0 0)
(-3.35765e-05 0 0)
(-8.62234e-05 0 0)
(-4.20361e-05 0 0)
)
;

boundaryField
{
    inlet
    {
        type            fixedValue;
        value           uniform (0.005 0 0);
    }
    outlet
    {
        type            zeroGradient;
    }
    yzfaces
    {
        type            empty;
    }
}


// ************************************************************************* //
