/*--------------------------------*- C++ -*----------------------------------*\
| =========                 |                                                 |
| \\      /  F ield         | foam-extend: Open Source CFD                    |
|  \\    /   O peration     | Version:     5.0                                |
|   \\  /    A nd           | Web:         http://www.foam-extend.org         |
|    \\/     M anipulation  |                                                 |
\*---------------------------------------------------------------------------*/
FoamFile
{
    version     2.0;
    format      ascii;
    class       volScalarField;
    location    "10";
    object      XCO2;
}
// * * * * * * * * * * * * * * * * * * * * * * * * * * * * * * * * * * * * * //

dimensions      [0 0 0 0 0 0 0];

internalField   nonuniform List<scalar> 
100
(
0.000383476
0.000509071
0
0.00251555
0.0010932
0.00229405
0.00230335
0.00710041
0.000232386
0.00571781
0.000209011
0.00814856
0.000787661
0.0071534
0.000901577
0.00384639
0.00494009
0.00836332
0.00392522
0.0042126
0.00832582
0.00353344
0.00473597
0.0111694
0.00185981
0.0106643
0.00556637
0.0115521
0.00352779
0.0108996
0.0103649
0.00440035
0.0183855
0
0.0230083
8.43411e-05
0.0242659
0.0029549
0.0176433
0.0159234
0.00711986
0.0260559
0.00372443
0.0180778
0.0192373
0.011588
0.0259224
0.00730615
0.036854
0.0224417
0.0165582
0.0530932
0.0255494
0.0269243
0.0745309
0.070571
0.0266718
0.0720024
0.0851977
0.0500949
0.070595
0.0598504
0.080681
0.0966009
0.0788809
0.0113138
0.0179842
0.179173
0
0.0321681
0.0649449
0.102713
0.0273051
0.0338985
0.161702
0.0140762
0.0282374
0.0637638
0.0456273
0.0187993
0.175452
0.0468685
0.0908744
0.0019724
0.183224
0.0357221
0.0669932
0.0992124
0.0305968
0.0388804
0.0996933
0.0536795
0.105371
0.0539921
0.0145596
0.0328727
0.110028
0.0111211
0.0882256
0.580339
)
;

boundaryField
{
    inlet
    {
        type            fixedValue;
        value           uniform 0;
    }
    outlet
    {
        type            zeroGradient;
    }
    yzfaces
    {
        type            empty;
    }
}


// ************************************************************************* //
