/*--------------------------------*- C++ -*----------------------------------*\
| =========                 |                                                 |
| \\      /  F ield         | foam-extend: Open Source CFD                    |
|  \\    /   O peration     | Version:     5.0                                |
|   \\  /    A nd           | Web:         http://www.foam-extend.org         |
|    \\/     M anipulation  |                                                 |
\*---------------------------------------------------------------------------*/
FoamFile
{
    version     2.0;
    format      ascii;
    class       surfaceScalarField;
    location    "9";
    object      phi;
}
// * * * * * * * * * * * * * * * * * * * * * * * * * * * * * * * * * * * * * //

dimensions      [0 3 -1 0 0 0 0];

internalField   nonuniform List<scalar> 
99
(
1.22495e-06
1.22511e-06
1.22472e-06
1.22491e-06
1.22501e-06
1.22528e-06
1.22585e-06
1.22588e-06
1.22577e-06
1.22559e-06
1.22575e-06
1.22482e-06
1.22474e-06
1.2251e-06
1.22505e-06
1.22517e-06
1.22516e-06
1.22568e-06
1.22534e-06
1.22518e-06
1.2246e-06
1.22498e-06
1.22421e-06
1.22547e-06
1.22573e-06
1.22521e-06
1.22509e-06
1.22464e-06
1.2241e-06
1.22379e-06
1.22424e-06
1.22391e-06
1.22349e-06
1.22367e-06
1.22337e-06
1.22345e-06
1.22345e-06
1.22358e-06
1.22313e-06
1.22328e-06
1.22427e-06
1.22417e-06
1.22442e-06
1.22417e-06
1.22444e-06
1.22662e-06
1.20695e-06
1.2517e-06
1.2219e-06
1.20699e-06
1.20699e-06
1.20699e-06
1.20699e-06
1.2219e-06
1.2666e-06
1.2368e-06
1.2666e-06
1.2368e-06
1.2368e-06
1.2368e-06
1.20699e-06
1.19209e-06
1.17719e-06
1.17719e-06
1.17719e-06
1.13249e-06
1.17719e-06
1.13249e-06
1.16229e-06
1.14739e-06
1.11759e-06
1.13249e-06
1.14739e-06
1.11759e-06
1.17719e-06
1.13249e-06
1.10269e-06
1.13249e-06
1.10269e-06
1.14739e-06
1.11759e-06
1.10269e-06
1.05798e-06
1.04308e-06
1.10269e-06
1.08778e-06
1.10269e-06
1.16229e-06
1.16229e-06
1.16229e-06
1.11759e-06
1.10269e-06
1.11759e-06
1.08778e-06
1.13249e-06
1.16229e-06
1.14739e-06
1.16229e-06
1.16229e-06
)
;

boundaryField
{
    inlet
    {
        type            calculated;
        value           uniform -1.225e-06;
    }
    outlet
    {
        type            calculated;
        value           uniform 1.19209e-06;
    }
    yzfaces
    {
        type            empty;
    }
}


// ************************************************************************* //
