/*--------------------------------*- C++ -*----------------------------------*\
| =========                 |                                                 |
| \\      /  F ield         | foam-extend: Open Source CFD                    |
|  \\    /   O peration     | Version:     5.0                                |
|   \\  /    A nd           | Web:         http://www.foam-extend.org         |
|    \\/     M anipulation  |                                                 |
\*---------------------------------------------------------------------------*/
FoamFile
{
    version     2.0;
    format      ascii;
    class       volVectorField;
    location    "9";
    object      U.gas;
}
// * * * * * * * * * * * * * * * * * * * * * * * * * * * * * * * * * * * * * //

dimensions      [0 1 -1 0 0 0 0];

internalField   nonuniform List<vector> 
100
(
(5.94525e-05 0 0)
(0.000133201 0 0)
(0.00020184 0 0)
(0.000267539 0 0)
(0.000332618 0 0)
(0.000395511 0 0)
(0.000458269 0 0)
(0.000520628 0 0)
(0.000582815 0 0)
(0.000645023 0 0)
(0.000707553 0 0)
(0.000770115 0 0)
(0.00083339 0 0)
(0.000896188 0 0)
(0.00095789 0 0)
(0.0010204 0 0)
(0.00108263 0 0)
(0.00114451 0 0)
(0.00120769 0 0)
(0.00127224 0 0)
(0.0013358 0 0)
(0.00140034 0 0)
(0.00146562 0 0)
(0.00153063 0 0)
(0.00159697 0 0)
(0.00166205 0 0)
(0.00173103 0 0)
(0.00180513 0 0)
(0.00188035 0 0)
(0.00195642 0 0)
(0.00203478 0 0)
(0.00211328 0 0)
(0.00219366 0 0)
(0.00228133 0 0)
(0.00237289 0 0)
(0.00247103 0 0)
(0.00258252 0 0)
(0.00270928 0 0)
(0.00285875 0 0)
(0.00304769 0 0)
(0.00329863 0 0)
(0.00365854 0 0)
(0.00426916 0 0)
(0.0056653 0 0)
(0.010853 0 0)
(0.00516924 0 0)
(0.00496347 0 0)
(0.00501765 0 0)
(0.00504815 0 0)
(0.00495692 0 0)
(0.00492651 0 0)
(0.00492651 0 0)
(0.00492651 0 0)
(0.00495692 0 0)
(0.00507856 0 0)
(0.00510897 0 0)
(0.00510897 0 0)
(0.00510897 0 0)
(0.00504815 0 0)
(0.00504815 0 0)
(0.00498733 0 0)
(0.0048961 0 0)
(0.00483527 0 0)
(0.00480486 0 0)
(0.00480486 0 0)
(0.00471363 0 0)
(0.00471363 0 0)
(0.00471363 0 0)
(0.00468322 0 0)
(0.00471363 0 0)
(0.0046224 0 0)
(0.00459199 0 0)
(0.00465281 0 0)
(0.0046224 0 0)
(0.00468322 0 0)
(0.00471363 0 0)
(0.00456158 0 0)
(0.00456158 0 0)
(0.00456158 0 0)
(0.00459199 0 0)
(0.0046224 0 0)
(0.00453117 0 0)
(0.00440953 0 0)
(0.00428789 0 0)
(0.00437912 0 0)
(0.00447035 0 0)
(0.00447035 0 0)
(0.0046224 0 0)
(0.00474404 0 0)
(0.00474404 0 0)
(0.00465281 0 0)
(0.00453117 0 0)
(0.00453117 0 0)
(0.00450076 0 0)
(0.00453117 0 0)
(0.00468322 0 0)
(0.00471363 0 0)
(0.00471363 0 0)
(0.00474404 0 0)
(0.00480486 0 0)
)
;

boundaryField
{
    inlet
    {
        type            fixedValue;
        value           uniform (0 0 0);
    }
    outlet
    {
        type            zeroGradient;
    }
    yzfaces
    {
        type            empty;
    }
}


// ************************************************************************* //
