/*--------------------------------*- C++ -*----------------------------------*\
| =========                 |                                                 |
| \\      /  F ield         | foam-extend: Open Source CFD                    |
|  \\    /   O peration     | Version:     5.0                                |
|   \\  /    A nd           | Web:         http://www.foam-extend.org         |
|    \\/     M anipulation  |                                                 |
\*---------------------------------------------------------------------------*/
FoamFile
{
    version     2.0;
    format      ascii;
    class       volScalarField;
    location    "6";
    object      XH2O;
}
// * * * * * * * * * * * * * * * * * * * * * * * * * * * * * * * * * * * * * //

dimensions      [0 0 0 0 0 0 0];

internalField   nonuniform List<scalar> 
100
(
6.14516e+10
-1.73186e+11
3.65124e+11
-7.87784e+11
1.64451e+12
-3.36777e+12
6.75438e+12
-1.32964e+13
2.57819e+13
-4.93378e+13
9.34442e+13
-1.75264e+14
3.24838e+14
-5.89817e+14
1.02724e+15
-1.6386e+15
2.11176e+15
-1.0103e+15
-6.44146e+15
3.36373e+16
-1.13405e+17
3.15182e+17
-7.56345e+17
1.55108e+18
-2.4946e+18
1.94975e+18
6.56124e+18
-4.45486e+19
1.74069e+20
-5.37662e+20
1.31421e+21
-1.97308e+21
-1.98582e+21
2.28223e+22
-2.13926e+22
-4.76094e+23
1.39665e+24
3.92463e+25
1.27906e+26
2.3621e+26
2.71902e+26
5.71297e+25
8.31763e+23
1.07889e+21
1.20605e+17
1.19843e+12
1.06062e+06
0.0828685
5.69561e-10
3.53298e-19
1.92066e-29
9.25653e-41
3.90729e-53
1.46487e-66
4.86719e-81
1.39625e-96
3.54682e-113
8.06435e-131
1.57978e-149
2.68555e-169
4.06728e-190
5.35815e-212
6.25519e-235
6.32401e-259
5.47346e-284
4.18024e-310
0
0
0
0
0
0
0
0
0
0
0
0
0
0
0
0
0
0
0
0
0
0
0
0
0
0
0
0
0
0
0
0
0
0
)
;

boundaryField
{
    inlet
    {
        type            fixedValue;
        value           uniform 0.5;
    }
    outlet
    {
        type            zeroGradient;
    }
    yzfaces
    {
        type            empty;
    }
}


// ************************************************************************* //
