/*--------------------------------*- C++ -*----------------------------------*\
| =========                 |                                                 |
| \\      /  F ield         | foam-extend: Open Source CFD                    |
|  \\    /   O peration     | Version:     5.0                                |
|   \\  /    A nd           | Web:         http://www.foam-extend.org         |
|    \\/     M anipulation  |                                                 |
\*---------------------------------------------------------------------------*/
FoamFile
{
    version     2.0;
    format      ascii;
    class       volScalarField;
    location    "5";
    object      alpha.gas;
}
// * * * * * * * * * * * * * * * * * * * * * * * * * * * * * * * * * * * * * //

dimensions      [0 0 0 0 0 0 0];

internalField   nonuniform List<scalar> 
100
(
0.0840422
0.082438
0.080968
0.0794131
0.0779009
0.0764034
0.0749696
0.0736447
0.0723611
0.0709733
0.0698495
0.0686551
0.0675081
0.0664018
0.0652318
0.0641793
0.0631501
0.0621261
0.061177
0.060209
0.0592879
0.058437
0.0576168
0.0567897
0.0559793
0.0551861
0.0544404
0.0537346
0.0530291
0.0523958
0.051684
0.0510617
0.0504883
0.0498694
0.0492451
0.0486672
0.0480931
0.0475786
0.0470512
0.0465583
0.0460115
0.0455149
0.0450516
0.0446003
0.044136
0.0437064
0.0432647
0.042799
0.0423808
0.0420131
0.0416134
0.0411973
0.0407855
0.040431
0.0400637
0.0396732
0.0393099
0.0389867
0.0385937
0.0382386
0.037916
0.0375734
0.0372314
0.0369367
0.0366148
0.0362873
0.0359863
0.0356792
0.0353546
0.0350803
0.0347588
0.0344609
0.0341822
0.0338687
0.0336047
0.0332982
0.0330342
0.0327673
0.0324723
0.0321965
0.0319063
0.0316401
0.0313559
0.0310755
0.0307795
0.0304934
0.0302306
0.0299431
0.0296551
0.0293913
0.0290929
0.0288067
0.0285053
0.0282231
0.0279252
0.027619
0.0273414
0.0270283
0.0267597
0.0265732
)
;

boundaryField
{
    inlet
    {
        type            fixedValue;
        value           uniform 0.2;
    }
    outlet
    {
        type            zeroGradient;
    }
    yzfaces
    {
        type            empty;
    }
}


// ************************************************************************* //
