/*--------------------------------*- C++ -*----------------------------------*\
| =========                 |                                                 |
| \\      /  F ield         | foam-extend: Open Source CFD                    |
|  \\    /   O peration     | Version:     5.0                                |
|   \\  /    A nd           | Web:         http://www.foam-extend.org         |
|    \\/     M anipulation  |                                                 |
\*---------------------------------------------------------------------------*/
FoamFile
{
    version     2.0;
    format      ascii;
    class       surfaceScalarField;
    location    "5";
    object      phi;
}
// * * * * * * * * * * * * * * * * * * * * * * * * * * * * * * * * * * * * * //

dimensions      [0 3 -1 0 0 0 0];

internalField   nonuniform List<scalar> 
99
(
1.22334e-06
1.2277e-06
1.21749e-06
1.21846e-06
1.21748e-06
1.21581e-06
1.21943e-06
1.21362e-06
1.20598e-06
1.21318e-06
1.20869e-06
1.20714e-06
1.20436e-06
1.20109e-06
1.20469e-06
1.20273e-06
1.20228e-06
1.20416e-06
1.2007e-06
1.20142e-06
1.19885e-06
1.19896e-06
1.19725e-06
1.1977e-06
1.19697e-06
1.20114e-06
1.19714e-06
1.19611e-06
1.19596e-06
1.19169e-06
1.19758e-06
1.20262e-06
1.19815e-06
1.19479e-06
1.19621e-06
1.19807e-06
1.19877e-06
1.19727e-06
1.19811e-06
1.19291e-06
1.1962e-06
1.19674e-06
1.19566e-06
1.19639e-06
1.19764e-06
1.19577e-06
1.19422e-06
1.19712e-06
1.19803e-06
1.19609e-06
1.19419e-06
1.19341e-06
1.19607e-06
1.19452e-06
1.19201e-06
1.19332e-06
1.19402e-06
1.19144e-06
1.19131e-06
1.19225e-06
1.19225e-06
1.19041e-06
1.19265e-06
1.19025e-06
1.18971e-06
1.18962e-06
1.18781e-06
1.1875e-06
1.1895e-06
1.18941e-06
1.18993e-06
1.19147e-06
1.18978e-06
1.19281e-06
1.19024e-06
1.19236e-06
1.1919e-06
1.19045e-06
1.19132e-06
1.1906e-06
1.19095e-06
1.19009e-06
1.19098e-06
1.19031e-06
1.19222e-06
1.19265e-06
1.19146e-06
1.19202e-06
1.1933e-06
1.19138e-06
1.19173e-06
1.19215e-06
1.19312e-06
1.19128e-06
1.19124e-06
1.19226e-06
1.1895e-06
1.19118e-06
1.19221e-06
)
;

boundaryField
{
    inlet
    {
        type            calculated;
        value           uniform -1.225e-06;
    }
    outlet
    {
        type            calculated;
        value           uniform 1.19111e-06;
    }
    yzfaces
    {
        type            empty;
    }
}


// ************************************************************************* //
