/*--------------------------------*- C++ -*----------------------------------*\
| =========                 |                                                 |
| \\      /  F ield         | foam-extend: Open Source CFD                    |
|  \\    /   O peration     | Version:     5.0                                |
|   \\  /    A nd           | Web:         http://www.foam-extend.org         |
|    \\/     M anipulation  |                                                 |
\*---------------------------------------------------------------------------*/
FoamFile
{
    version     2.0;
    format      ascii;
    class       volScalarField;
    location    "10";
    object      alpha.gas;
}
// * * * * * * * * * * * * * * * * * * * * * * * * * * * * * * * * * * * * * //

dimensions      [0 0 0 0 0 0 0];

internalField   nonuniform List<scalar> 
100
(
0.0929136
0.0916469
0.0905374
0.0893355
0.0882831
0.0872202
0.086115
0.0850708
0.0841152
0.0829788
0.0819945
0.0811064
0.0801913
0.0792801
0.0783246
0.07743
0.0765368
0.075631
0.0747857
0.0739061
0.0731079
0.072319
0.0714825
0.0707724
0.0700531
0.069355
0.0685474
0.0679152
0.0672203
0.0665122
0.0658848
0.0652667
0.0647076
0.0641012
0.063574
0.0629893
0.06242
0.0619556
0.0613847
0.0609239
0.0603548
0.0598272
0.0593716
0.0588437
0.0583643
0.057936
0.0575045
0.0570246
0.0566387
0.0562104
0.0558112
0.0553984
0.0549719
0.0545591
0.054145
0.0537813
0.0534026
0.0530091
0.0526598
0.0523281
0.0519741
0.0516415
0.0512874
0.0509275
0.0506218
0.0503499
0.0499844
0.0497252
0.0493973
0.0491208
0.0487773
0.0485754
0.0482508
0.04798
0.0477295
0.0474598
0.047127
0.0468896
0.0466578
0.0464253
0.0461585
0.0458913
0.0456388
0.0454007
0.0451445
0.044897
0.0446536
0.0444137
0.0442084
0.0439487
0.0437479
0.0435542
0.0432959
0.0431309
0.0429004
0.0427196
0.042556
0.0423902
0.0423145
0.0422486
)
;

boundaryField
{
    inlet
    {
        type            fixedValue;
        value           uniform 0.2;
    }
    outlet
    {
        type            zeroGradient;
    }
    yzfaces
    {
        type            empty;
    }
}


// ************************************************************************* //
