/*--------------------------------*- C++ -*----------------------------------*\
| =========                 |                                                 |
| \\      /  F ield         | foam-extend: Open Source CFD                    |
|  \\    /   O peration     | Version:     5.0                                |
|   \\  /    A nd           | Web:         http://www.foam-extend.org         |
|    \\/     M anipulation  |                                                 |
\*---------------------------------------------------------------------------*/
FoamFile
{
    version     2.0;
    format      ascii;
    class       volVectorField;
    location    "10";
    object      U.water;
}
// * * * * * * * * * * * * * * * * * * * * * * * * * * * * * * * * * * * * * //

dimensions      [0 1 -1 0 0 0 0];

internalField   nonuniform List<vector> 
100
(
(3.98247e-07 0 0)
(1.91562e-05 0 0)
(3.41955e-05 0 0)
(4.86069e-05 0 0)
(6.96475e-05 0 0)
(7.3758e-05 0 0)
(8.42184e-05 0 0)
(0.000106841 0 0)
(0.000108412 0 0)
(0.000115621 0 0)
(0.00014689 0 0)
(0.000161944 0 0)
(0.000169507 0 0)
(0.000175782 0 0)
(0.000186462 0 0)
(0.000201875 0 0)
(0.000212007 0 0)
(0.000226785 0 0)
(0.000238779 0 0)
(0.000251902 0 0)
(0.000269725 0 0)
(0.000277968 0 0)
(0.000295572 0 0)
(0.000315851 0 0)
(0.000327245 0 0)
(0.000331202 0 0)
(0.000348528 0 0)
(0.000368717 0 0)
(0.000373615 0 0)
(0.000391264 0 0)
(0.000409493 0 0)
(0.000426048 0 0)
(0.000437962 0 0)
(0.00045106 0 0)
(0.000463232 0 0)
(0.000469741 0 0)
(0.0004903 0 0)
(0.000500713 0 0)
(0.000512157 0 0)
(0.000525035 0 0)
(0.000530673 0 0)
(0.000549963 0 0)
(0.000560727 0 0)
(0.000570051 0 0)
(0.000589382 0 0)
(0.000605045 0 0)
(0.000612482 0 0)
(0.00062858 0 0)
(0.000643582 0 0)
(0.000651876 0 0)
(0.000663523 0 0)
(0.000671931 0 0)
(0.000682977 0 0)
(0.000694365 0 0)
(0.000710342 0 0)
(0.000725601 0 0)
(0.000733583 0 0)
(0.000746774 0 0)
(0.000763807 0 0)
(0.000773865 0 0)
(0.000785116 0 0)
(0.000797454 0 0)
(0.000805681 0 0)
(0.000820259 0 0)
(0.000838933 0 0)
(0.000844974 0 0)
(0.000856716 0 0)
(0.000872084 0 0)
(0.000881445 0 0)
(0.00088998 0 0)
(0.000906012 0 0)
(0.000918371 0 0)
(0.000923823 0 0)
(0.000940972 0 0)
(0.000950648 0 0)
(0.000954764 0 0)
(0.000968488 0 0)
(0.000987063 0 0)
(0.000997366 0 0)
(0.00100493 0 0)
(0.00101323 0 0)
(0.00102626 0 0)
(0.0010401 0 0)
(0.00105066 0 0)
(0.00106031 0 0)
(0.00107213 0 0)
(0.00108445 0 0)
(0.00109944 0 0)
(0.00110808 0 0)
(0.00111914 0 0)
(0.00113644 0 0)
(0.00114317 0 0)
(0.00115641 0 0)
(0.00116953 0 0)
(0.00117808 0 0)
(0.00119303 0 0)
(0.001203 0 0)
(0.00121575 0 0)
(0.0012263 0 0)
(0.00123279 0 0)
)
;

boundaryField
{
    inlet
    {
        type            fixedValue;
        value           uniform (0 0 0);
    }
    outlet
    {
        type            zeroGradient;
    }
    yzfaces
    {
        type            empty;
    }
}


// ************************************************************************* //
