/*--------------------------------*- C++ -*----------------------------------*\
| =========                 |                                                 |
| \\      /  F ield         | foam-extend: Open Source CFD                    |
|  \\    /   O peration     | Version:     5.0                                |
|   \\  /    A nd           | Web:         http://www.foam-extend.org         |
|    \\/     M anipulation  |                                                 |
\*---------------------------------------------------------------------------*/
FoamFile
{
    version     2.0;
    format      ascii;
    class       volVectorField;
    location    "5";
    object      U.gas;
}
// * * * * * * * * * * * * * * * * * * * * * * * * * * * * * * * * * * * * * //

dimensions      [0 1 -1 0 0 0 0];

internalField   nonuniform List<vector> 
100
(
(0.0118743 0 0)
(0.0120744 0 0)
(0.0122348 0 0)
(0.0124074 0 0)
(0.0126123 0 0)
(0.0128041 0 0)
(0.0130041 0 0)
(0.0131728 0 0)
(0.0133076 0 0)
(0.0135047 0 0)
(0.0136709 0 0)
(0.0138389 0 0)
(0.013995 0 0)
(0.0141526 0 0)
(0.0143526 0 0)
(0.0145274 0 0)
(0.0146941 0 0)
(0.01488 0 0)
(0.0150384 0 0)
(0.015202 0 0)
(0.0153476 0 0)
(0.0154803 0 0)
(0.0156288 0 0)
(0.0157849 0 0)
(0.0159429 0 0)
(0.0161183 0 0)
(0.0162585 0 0)
(0.0163646 0 0)
(0.0164931 0 0)
(0.0165948 0 0)
(0.0167617 0 0)
(0.0169434 0 0)
(0.0170681 0 0)
(0.0171587 0 0)
(0.0172754 0 0)
(0.0174168 0 0)
(0.0175531 0 0)
(0.0176501 0 0)
(0.0177593 0 0)
(0.0178387 0 0)
(0.0179541 0 0)
(0.0180765 0 0)
(0.0181656 0 0)
(0.0182649 0 0)
(0.0183821 0 0)
(0.018465 0 0)
(0.0185473 0 0)
(0.0186626 0 0)
(0.0187617 0 0)
(0.0188267 0 0)
(0.0188998 0 0)
(0.0189764 0 0)
(0.0190719 0 0)
(0.019142 0 0)
(0.0191972 0 0)
(0.0192768 0 0)
(0.0193578 0 0)
(0.0194129 0 0)
(0.0194888 0 0)
(0.0195516 0 0)
(0.0196228 0 0)
(0.0196867 0 0)
(0.0197514 0 0)
(0.0197995 0 0)
(0.0198504 0 0)
(0.019905 0 0)
(0.0199404 0 0)
(0.0199903 0 0)
(0.0200606 0 0)
(0.0201186 0 0)
(0.0201976 0 0)
(0.0202577 0 0)
(0.0203069 0 0)
(0.0203759 0 0)
(0.0204135 0 0)
(0.020473 0 0)
(0.0205126 0 0)
(0.0205444 0 0)
(0.0205965 0 0)
(0.0206359 0 0)
(0.0206757 0 0)
(0.0207029 0 0)
(0.0207495 0 0)
(0.0207886 0 0)
(0.0208464 0 0)
(0.0208937 0 0)
(0.0209121 0 0)
(0.0209511 0 0)
(0.0209915 0 0)
(0.0210087 0 0)
(0.0210396 0 0)
(0.0210705 0 0)
(0.0211131 0 0)
(0.0211144 0 0)
(0.0211257 0 0)
(0.0211548 0 0)
(0.0211439 0 0)
(0.0211549 0 0)
(0.0211399 0 0)
(0.0210366 0 0)
)
;

boundaryField
{
    inlet
    {
        type            fixedValue;
        value           uniform (0.005 0 0);
    }
    outlet
    {
        type            zeroGradient;
    }
    yzfaces
    {
        type            empty;
    }
}


// ************************************************************************* //
