/*--------------------------------*- C++ -*----------------------------------*\
| =========                 |                                                 |
| \\      /  F ield         | foam-extend: Open Source CFD                    |
|  \\    /   O peration     | Version:     5.0                                |
|   \\  /    A nd           | Web:         http://www.foam-extend.org         |
|    \\/     M anipulation  |                                                 |
\*---------------------------------------------------------------------------*/
FoamFile
{
    version     2.0;
    format      ascii;
    class       volVectorField;
    location    "5";
    object      U.water;
}
// * * * * * * * * * * * * * * * * * * * * * * * * * * * * * * * * * * * * * //

dimensions      [0 1 -1 0 0 0 0];

internalField   nonuniform List<vector> 
100
(
(1.19072e-05 0 0)
(4.28213e-05 0 0)
(6.2269e-05 0 0)
(7.43137e-05 0 0)
(9.62249e-05 0 0)
(0.000120547 0 0)
(0.00015246 0 0)
(0.000181843 0 0)
(0.000193059 0 0)
(0.000224329 0 0)
(0.000258252 0 0)
(0.000273661 0 0)
(0.000298179 0 0)
(0.000314814 0 0)
(0.000339139 0 0)
(0.000370076 0 0)
(0.00039242 0 0)
(0.000419127 0 0)
(0.000443503 0 0)
(0.000466097 0 0)
(0.000495862 0 0)
(0.000523254 0 0)
(0.000544767 0 0)
(0.000566387 0 0)
(0.000589827 0 0)
(0.000616722 0 0)
(0.000644222 0 0)
(0.000666555 0 0)
(0.000692262 0 0)
(0.000711709 0 0)
(0.000734241 0 0)
(0.000768878 0 0)
(0.00079033 0 0)
(0.000806045 0 0)
(0.000830389 0 0)
(0.000856566 0 0)
(0.000882893 0 0)
(0.00090675 0 0)
(0.000929133 0 0)
(0.000947513 0 0)
(0.000967942 0 0)
(0.000996604 0 0)
(0.00102034 0 0)
(0.00104074 0 0)
(0.00106404 0 0)
(0.00108682 0 0)
(0.00110417 0 0)
(0.00112798 0 0)
(0.00115772 0 0)
(0.00117873 0 0)
(0.00119416 0 0)
(0.00121381 0 0)
(0.00124011 0 0)
(0.00126479 0 0)
(0.00128167 0 0)
(0.00130255 0 0)
(0.00132845 0 0)
(0.00134656 0 0)
(0.00136554 0 0)
(0.0013925 0 0)
(0.00141438 0 0)
(0.00143338 0 0)
(0.00145794 0 0)
(0.0014797 0 0)
(0.00149705 0 0)
(0.0015201 0 0)
(0.00154135 0 0)
(0.00155964 0 0)
(0.00158504 0 0)
(0.00160815 0 0)
(0.00162864 0 0)
(0.00165461 0 0)
(0.00167535 0 0)
(0.00169974 0 0)
(0.00172291 0 0)
(0.00174428 0 0)
(0.0017701 0 0)
(0.00178916 0 0)
(0.00181066 0 0)
(0.00183433 0 0)
(0.00185835 0 0)
(0.00188174 0 0)
(0.00190488 0 0)
(0.00192949 0 0)
(0.00195496 0 0)
(0.00198396 0 0)
(0.00200813 0 0)
(0.00203172 0 0)
(0.0020611 0 0)
(0.00208585 0 0)
(0.00210989 0 0)
(0.00213816 0 0)
(0.00216767 0 0)
(0.00219652 0 0)
(0.00222298 0 0)
(0.0022542 0 0)
(0.00228222 0 0)
(0.00231208 0 0)
(0.00235 0 0)
(0.00238588 0 0)
)
;

boundaryField
{
    inlet
    {
        type            fixedValue;
        value           uniform (0 0 0);
    }
    outlet
    {
        type            zeroGradient;
    }
    yzfaces
    {
        type            empty;
    }
}


// ************************************************************************* //
