/*--------------------------------*- C++ -*----------------------------------*\
| =========                 |                                                 |
| \\      /  F ield         | foam-extend: Open Source CFD                    |
|  \\    /   O peration     | Version:     5.0                                |
|   \\  /    A nd           | Web:         http://www.foam-extend.org         |
|    \\/     M anipulation  |                                                 |
\*---------------------------------------------------------------------------*/
FoamFile
{
    version     2.0;
    format      ascii;
    class       volScalarField;
    location    "5";
    object      XCO2;
}
// * * * * * * * * * * * * * * * * * * * * * * * * * * * * * * * * * * * * * //

dimensions      [0 0 0 0 0 0 0];

internalField   nonuniform List<scalar> 
100
(
0.57153
0.583712
0.574723
0.59169
0.585617
0.586246
0.608684
0.592692
0.607916
0.616037
0.612252
0.626739
0.624667
0.629745
0.643821
0.643582
0.647337
0.660158
0.659616
0.661404
0.662284
0.675428
0.67746
0.683086
0.67853
0.691779
0.683057
0.706285
0.691619
0.703813
0.707098
0.713661
0.707531
0.720542
0.716465
0.720522
0.731043
0.724415
0.73421
0.729433
0.738242
0.740716
0.737576
0.744804
0.745636
0.751844
0.745437
0.74993
0.759914
0.755586
0.762222
0.757927
0.763053
0.766982
0.766666
0.771139
0.772024
0.77094
0.777618
0.775555
0.778861
0.780498
0.779828
0.789689
0.785319
0.78839
0.791269
0.789786
0.791726
0.793712
0.796775
0.79707
0.799975
0.800329
0.8031
0.800353
0.807268
0.806602
0.810358
0.80939
0.810544
0.814583
0.815025
0.813523
0.817047
0.818053
0.818859
0.821392
0.823477
0.823073
0.824859
0.828203
0.829191
0.830018
0.832237
0.834308
0.832241
0.841019
0.833649
0.84156
)
;

boundaryField
{
    inlet
    {
        type            fixedValue;
        value           uniform 0;
    }
    outlet
    {
        type            zeroGradient;
    }
    yzfaces
    {
        type            empty;
    }
}


// ************************************************************************* //
