/*--------------------------------*- C++ -*----------------------------------*\
| =========                 |                                                 |
| \\      /  F ield         | foam-extend: Open Source CFD                    |
|  \\    /   O peration     | Version:     5.0                                |
|   \\  /    A nd           | Web:         http://www.foam-extend.org         |
|    \\/     M anipulation  |                                                 |
\*---------------------------------------------------------------------------*/
FoamFile
{
    version     2.0;
    format      ascii;
    class       volScalarField;
    location    "7";
    object      XCO2;
}
// * * * * * * * * * * * * * * * * * * * * * * * * * * * * * * * * * * * * * //

dimensions      [0 0 0 0 0 0 0];

internalField   nonuniform List<scalar> 
100
(
-0.00295199
0.00445768
-0.000665959
0.00404536
0.00391091
-0.000773364
0.000397898
0.00798046
-0.0040774
0.00912254
0.00140375
0.00738123
-5.60634e-05
0.0120152
-0.00250136
0.0110809
-0.00133567
0.0150346
-0.00172332
0.014791
0.00243604
0.0115452
0.00851903
0.006889
0.0142516
0.0057662
0.0123318
0.0137424
0.0126514
0.0226963
0.0307707
0.0657228
0.180881
0.312106
0.452276
0.578394
0.688417
0.78775
0.858912
0.91798
0.958575
0.984148
0.996178
0.999564
0.999964
0.999997
1
1
1
1
1
1
1
1
1
1
1
1
1
1
1
1
1
1
1
1
1
1
1
1
1
1
1
1
1
1
1
1
1
1
1
1
1
1
1
1
1
1
1
1
1
1
1
1
1
1
1
1
1
1
)
;

boundaryField
{
    inlet
    {
        type            calculated;
        value           uniform 0;
    }
    outlet
    {
        type            calculated;
        value           uniform 1;
    }
    yzfaces
    {
        type            empty;
    }
}


// ************************************************************************* //
