/*--------------------------------*- C++ -*----------------------------------*\
| =========                 |                                                 |
| \\      /  F ield         | foam-extend: Open Source CFD                    |
|  \\    /   O peration     | Version:     5.0                                |
|   \\  /    A nd           | Web:         http://www.foam-extend.org         |
|    \\/     M anipulation  |                                                 |
\*---------------------------------------------------------------------------*/
FoamFile
{
    version     2.0;
    format      ascii;
    class       surfaceScalarField;
    location    "2";
    object      phi;
}
// * * * * * * * * * * * * * * * * * * * * * * * * * * * * * * * * * * * * * //

dimensions      [0 3 -1 0 0 0 0];

internalField   nonuniform List<scalar> 
99
(
1.22355e-06
1.22495e-06
1.22477e-06
1.22765e-06
1.22455e-06
1.22874e-06
1.2217e-06
1.21969e-06
1.21805e-06
1.22931e-06
1.225e-06
1.22432e-06
1.22654e-06
1.22059e-06
1.22194e-06
1.22492e-06
1.21992e-06
1.22456e-06
1.22284e-06
1.22535e-06
1.22191e-06
1.22568e-06
1.22499e-06
1.22367e-06
1.22128e-06
1.22314e-06
1.22113e-06
1.22425e-06
1.22212e-06
1.21942e-06
1.22155e-06
1.22263e-06
1.22266e-06
1.22383e-06
1.22197e-06
1.22495e-06
1.222e-06
1.22531e-06
1.22458e-06
1.2242e-06
1.224e-06
1.22468e-06
1.22323e-06
1.22553e-06
1.2247e-06
1.2242e-06
1.22458e-06
1.22579e-06
1.22607e-06
1.22373e-06
1.22555e-06
1.22608e-06
1.22455e-06
1.2261e-06
1.2254e-06
1.22703e-06
1.22708e-06
1.22723e-06
1.22685e-06
1.22538e-06
1.22732e-06
1.22771e-06
1.22783e-06
1.22706e-06
1.22773e-06
1.22839e-06
1.22766e-06
1.22769e-06
1.22806e-06
1.2268e-06
1.22813e-06
1.22874e-06
1.2286e-06
1.22866e-06
1.22938e-06
1.22899e-06
1.22916e-06
1.2293e-06
1.22823e-06
1.22822e-06
1.22672e-06
1.22853e-06
1.22817e-06
1.22738e-06
1.22769e-06
1.22818e-06
1.22913e-06
1.22869e-06
1.22925e-06
1.23068e-06
1.22983e-06
1.23068e-06
1.22851e-06
1.23009e-06
1.23099e-06
1.23102e-06
1.2317e-06
1.2291e-06
1.22975e-06
)
;

boundaryField
{
    inlet
    {
        type            calculated;
        value           uniform -1.225e-06;
    }
    outlet
    {
        type            calculated;
        value           uniform 1.23035e-06;
    }
    yzfaces
    {
        type            empty;
    }
}


// ************************************************************************* //
