/*--------------------------------*- C++ -*----------------------------------*\
| =========                 |                                                 |
| \\      /  F ield         | foam-extend: Open Source CFD                    |
|  \\    /   O peration     | Version:     5.0                                |
|   \\  /    A nd           | Web:         http://www.foam-extend.org         |
|    \\/     M anipulation  |                                                 |
\*---------------------------------------------------------------------------*/
FoamFile
{
    version     2.0;
    format      ascii;
    class       volVectorField;
    location    "2";
    object      U.gas;
}
// * * * * * * * * * * * * * * * * * * * * * * * * * * * * * * * * * * * * * //

dimensions      [0 1 -1 0 0 0 0];

internalField   nonuniform List<vector> 
100
(
(0.0136881 0 0)
(0.0140515 0 0)
(0.0144082 0 0)
(0.014785 0 0)
(0.01514 0 0)
(0.0155086 0 0)
(0.0158066 0 0)
(0.0161121 0 0)
(0.0164476 0 0)
(0.0168156 0 0)
(0.01712 0 0)
(0.0174221 0 0)
(0.0177126 0 0)
(0.0179475 0 0)
(0.0182091 0 0)
(0.0184931 0 0)
(0.0187046 0 0)
(0.0189503 0 0)
(0.0191866 0 0)
(0.0194109 0 0)
(0.0196093 0 0)
(0.0198156 0 0)
(0.0200087 0 0)
(0.0201794 0 0)
(0.0203284 0 0)
(0.0204968 0 0)
(0.0206325 0 0)
(0.0207937 0 0)
(0.0209192 0 0)
(0.0209989 0 0)
(0.0211303 0 0)
(0.0212604 0 0)
(0.021382 0 0)
(0.0214923 0 0)
(0.021549 0 0)
(0.0216416 0 0)
(0.0217042 0 0)
(0.021788 0 0)
(0.0218327 0 0)
(0.0218784 0 0)
(0.0219112 0 0)
(0.0219504 0 0)
(0.0219564 0 0)
(0.0219869 0 0)
(0.0219846 0 0)
(0.0219734 0 0)
(0.0219699 0 0)
(0.0219495 0 0)
(0.0219112 0 0)
(0.021835 0 0)
(0.0217886 0 0)
(0.0217221 0 0)
(0.0216244 0 0)
(0.0215294 0 0)
(0.0214023 0 0)
(0.0212835 0 0)
(0.0211391 0 0)
(0.0209679 0 0)
(0.0207665 0 0)
(0.0205411 0 0)
(0.0203192 0 0)
(0.0200743 0 0)
(0.0198044 0 0)
(0.0194893 0 0)
(0.0191622 0 0)
(0.0188254 0 0)
(0.0184537 0 0)
(0.0180748 0 0)
(0.0176863 0 0)
(0.017277 0 0)
(0.0168902 0 0)
(0.0165219 0 0)
(0.0161458 0 0)
(0.0157953 0 0)
(0.0154859 0 0)
(0.0151932 0 0)
(0.0149329 0 0)
(0.0147094 0 0)
(0.0145092 0 0)
(0.014334 0 0)
(0.0141877 0 0)
(0.0140814 0 0)
(0.0139892 0 0)
(0.0139043 0 0)
(0.0138469 0 0)
(0.0137999 0 0)
(0.0137739 0 0)
(0.0137403 0 0)
(0.0137214 0 0)
(0.0137157 0 0)
(0.0136979 0 0)
(0.0136875 0 0)
(0.0136678 0 0)
(0.0136636 0 0)
(0.013673 0 0)
(0.0136735 0 0)
(0.0136757 0 0)
(0.0136583 0 0)
(0.0136551 0 0)
(0.0136567 0 0)
)
;

boundaryField
{
    inlet
    {
        type            fixedValue;
        value           uniform (0.005 0 0);
    }
    outlet
    {
        type            zeroGradient;
    }
    yzfaces
    {
        type            empty;
    }
}


// ************************************************************************* //
