/*--------------------------------*- C++ -*----------------------------------*\
| =========                 |                                                 |
| \\      /  F ield         | foam-extend: Open Source CFD                    |
|  \\    /   O peration     | Version:     5.0                                |
|   \\  /    A nd           | Web:         http://www.foam-extend.org         |
|    \\/     M anipulation  |                                                 |
\*---------------------------------------------------------------------------*/
FoamFile
{
    version     2.0;
    format      ascii;
    class       volVectorField;
    location    "2";
    object      U.water;
}
// * * * * * * * * * * * * * * * * * * * * * * * * * * * * * * * * * * * * * //

dimensions      [0 1 -1 0 0 0 0];

internalField   nonuniform List<vector> 
100
(
(2.20997e-05 0 0)
(7.54991e-05 0 0)
(0.000129357 0 0)
(0.000182995 0 0)
(0.000233185 0 0)
(0.000291161 0 0)
(0.000350679 0 0)
(0.0003945 0 0)
(0.000446044 0 0)
(0.00052147 0 0)
(0.000585397 0 0)
(0.000630425 0 0)
(0.000693616 0 0)
(0.000749435 0 0)
(0.000799366 0 0)
(0.000862842 0 0)
(0.000920151 0 0)
(0.000974395 0 0)
(0.00103225 0 0)
(0.00108806 0 0)
(0.00114215 0 0)
(0.00119916 0 0)
(0.00125773 0 0)
(0.00130931 0 0)
(0.00136034 0 0)
(0.0014159 0 0)
(0.00147178 0 0)
(0.00152735 0 0)
(0.0015843 0 0)
(0.00163399 0 0)
(0.00168754 0 0)
(0.00174553 0 0)
(0.00179944 0 0)
(0.00185665 0 0)
(0.00191304 0 0)
(0.00196926 0 0)
(0.0020233 0 0)
(0.00207922 0 0)
(0.00213957 0 0)
(0.00219314 0 0)
(0.00224811 0 0)
(0.00230547 0 0)
(0.00236175 0 0)
(0.00242141 0 0)
(0.002483 0 0)
(0.00253916 0 0)
(0.00259872 0 0)
(0.00266241 0 0)
(0.00272665 0 0)
(0.0027858 0 0)
(0.00284739 0 0)
(0.00291539 0 0)
(0.00297879 0 0)
(0.00304486 0 0)
(0.00311376 0 0)
(0.00318287 0 0)
(0.00325455 0 0)
(0.00332485 0 0)
(0.00339558 0 0)
(0.00346408 0 0)
(0.00353671 0 0)
(0.00361269 0 0)
(0.00368531 0 0)
(0.00375642 0 0)
(0.00382774 0 0)
(0.00390023 0 0)
(0.00396821 0 0)
(0.0040325 0 0)
(0.00409624 0 0)
(0.00415399 0 0)
(0.00420912 0 0)
(0.00426313 0 0)
(0.00430967 0 0)
(0.0043501 0 0)
(0.00438704 0 0)
(0.00441865 0 0)
(0.00444461 0 0)
(0.00446736 0 0)
(0.00448429 0 0)
(0.00449792 0 0)
(0.00450773 0 0)
(0.00451855 0 0)
(0.00452976 0 0)
(0.00453413 0 0)
(0.0045384 0 0)
(0.00454417 0 0)
(0.00455012 0 0)
(0.00455371 0 0)
(0.00455571 0 0)
(0.00456106 0 0)
(0.0045635 0 0)
(0.0045644 0 0)
(0.00456274 0 0)
(0.00456204 0 0)
(0.00456705 0 0)
(0.004569 0 0)
(0.00457063 0 0)
(0.00456717 0 0)
(0.00456341 0 0)
(0.00456624 0 0)
)
;

boundaryField
{
    inlet
    {
        type            fixedValue;
        value           uniform (0 0 0);
    }
    outlet
    {
        type            zeroGradient;
    }
    yzfaces
    {
        type            empty;
    }
}


// ************************************************************************* //
