/*--------------------------------*- C++ -*----------------------------------*\
| =========                 |                                                 |
| \\      /  F ield         | foam-extend: Open Source CFD                    |
|  \\    /   O peration     | Version:     5.0                                |
|   \\  /    A nd           | Web:         http://www.foam-extend.org         |
|    \\/     M anipulation  |                                                 |
\*---------------------------------------------------------------------------*/
FoamFile
{
    version     2.0;
    format      ascii;
    class       volScalarField;
    location    "2";
    object      YH2O;
}
// * * * * * * * * * * * * * * * * * * * * * * * * * * * * * * * * * * * * * //

dimensions      [0 0 0 0 0 0 0];

internalField   nonuniform List<scalar> 
100
(
0.0033034
-0.00408919
0.00356685
-0.003609
0.00409342
-0.00180885
-0.0033418
0.00213059
-9.66083e-05
0.00147396
0.000517338
-0.00300764
0.00249143
-0.00264206
0.000573508
0.000166499
0.000402714
-6.23393e-05
0.00109116
-0.000209696
0.000340773
0.000488058
0.000623761
0.000411343
-2.7289e-06
-0.000419596
0.00015616
-0.000307181
0.000255316
0.000468113
-0.00183026
-0.00158288
-0.0041633
-0.00870043
-0.0152737
-0.0225255
-0.0337466
-0.0504462
-0.0661337
-0.0883885
-0.110284
-0.133855
-0.157602
-0.179196
-0.197604
-0.210881
-0.218716
-0.223018
-0.217403
-0.208306
-0.193218
-0.175536
-0.152268
-0.131253
-0.107899
-0.0878742
-0.0681651
-0.0521652
-0.0375826
-0.0279076
-0.0181806
-0.0125172
-0.00780329
-0.00509532
-0.00254877
-0.00139354
-0.000101946
-0.000334545
0.00130434
0.000387308
0.00141774
0.000728667
0.000910632
0.000893155
0.00162483
-0.000182211
0.000906783
-9.52801e-05
0.000811344
-0.000348969
-4.73313e-05
0.000624046
-0.000558304
0.00100851
-0.000174636
0.000183545
0.000690573
0.000486098
1.05759e-05
0.000751831
-9.35529e-06
0.00104847
0.000502101
0.000218872
0.000584973
0.000109173
0.000219606
0.000345325
-0.000186373
-0.000199822
)
;

boundaryField
{
    inlet
    {
        type            calculated;
        value           uniform 0;
    }
    outlet
    {
        type            calculated;
        value           uniform -0.000199822;
    }
    yzfaces
    {
        type            empty;
    }
}


// ************************************************************************* //
