/*--------------------------------*- C++ -*----------------------------------*\
| =========                 |                                                 |
| \\      /  F ield         | foam-extend: Open Source CFD                    |
|  \\    /   O peration     | Version:     5.0                                |
|   \\  /    A nd           | Web:         http://www.foam-extend.org         |
|    \\/     M anipulation  |                                                 |
\*---------------------------------------------------------------------------*/
FoamFile
{
    version     2.0;
    format      ascii;
    class       surfaceScalarField;
    location    "3";
    object      phi;
}
// * * * * * * * * * * * * * * * * * * * * * * * * * * * * * * * * * * * * * //

dimensions      [0 3 -1 0 0 0 0];

internalField   nonuniform List<scalar> 
99
(
1.22807e-06
1.22602e-06
1.22033e-06
1.22999e-06
1.2305e-06
1.2228e-06
1.22251e-06
1.22248e-06
1.22042e-06
1.22082e-06
1.22313e-06
1.21954e-06
1.2216e-06
1.21582e-06
1.21877e-06
1.22234e-06
1.22115e-06
1.21807e-06
1.22303e-06
1.2193e-06
1.22133e-06
1.22409e-06
1.21849e-06
1.2233e-06
1.2274e-06
1.21881e-06
1.2197e-06
1.22108e-06
1.21989e-06
1.2206e-06
1.2224e-06
1.21903e-06
1.22261e-06
1.22035e-06
1.22484e-06
1.22074e-06
1.22524e-06
1.22366e-06
1.22355e-06
1.22618e-06
1.22633e-06
1.2273e-06
1.22665e-06
1.22795e-06
1.22875e-06
1.22829e-06
1.22847e-06
1.22469e-06
1.22785e-06
1.22834e-06
1.2271e-06
1.22566e-06
1.22606e-06
1.22825e-06
1.22581e-06
1.22795e-06
1.22622e-06
1.2247e-06
1.22748e-06
1.22607e-06
1.22604e-06
1.22684e-06
1.22748e-06
1.22605e-06
1.22517e-06
1.22657e-06
1.22669e-06
1.22755e-06
1.22502e-06
1.22683e-06
1.22677e-06
1.22684e-06
1.2244e-06
1.22747e-06
1.22617e-06
1.22452e-06
1.22656e-06
1.22529e-06
1.22492e-06
1.22702e-06
1.22632e-06
1.22655e-06
1.22702e-06
1.22702e-06
1.22725e-06
1.22748e-06
1.22702e-06
1.22702e-06
1.22702e-06
1.22748e-06
1.22702e-06
1.22725e-06
1.22655e-06
1.22702e-06
1.22702e-06
1.22702e-06
1.22702e-06
1.22702e-06
1.22725e-06
)
;

boundaryField
{
    inlet
    {
        type            calculated;
        value           uniform -1.225e-06;
    }
    outlet
    {
        type            calculated;
        value           uniform 1.22795e-06;
    }
    yzfaces
    {
        type            empty;
    }
}


// ************************************************************************* //
