/*--------------------------------*- C++ -*----------------------------------*\
| =========                 |                                                 |
| \\      /  F ield         | foam-extend: Open Source CFD                    |
|  \\    /   O peration     | Version:     5.0                                |
|   \\  /    A nd           | Web:         http://www.foam-extend.org         |
|    \\/     M anipulation  |                                                 |
\*---------------------------------------------------------------------------*/
FoamFile
{
    version     2.0;
    format      ascii;
    class       volVectorField;
    location    "3";
    object      U.water;
}
// * * * * * * * * * * * * * * * * * * * * * * * * * * * * * * * * * * * * * //

dimensions      [0 1 -1 0 0 0 0];

internalField   nonuniform List<vector> 
100
(
(2.32421e-05 0 0)
(6.45194e-05 0 0)
(7.8426e-05 0 0)
(0.000109447 0 0)
(0.000177502 0 0)
(0.000208733 0 0)
(0.000223665 0 0)
(0.000267351 0 0)
(0.00031859 0 0)
(0.000361639 0 0)
(0.000398642 0 0)
(0.000434626 0 0)
(0.000484723 0 0)
(0.000527327 0 0)
(0.000560339 0 0)
(0.000608615 0 0)
(0.000649454 0 0)
(0.000676902 0 0)
(0.00072399 0 0)
(0.000769248 0 0)
(0.000799156 0 0)
(0.000845698 0 0)
(0.000879983 0 0)
(0.000917976 0 0)
(0.000974664 0 0)
(0.00100683 0 0)
(0.00103061 0 0)
(0.00107233 0 0)
(0.00111518 0 0)
(0.0011557 0 0)
(0.00119642 0 0)
(0.00122837 0 0)
(0.00126944 0 0)
(0.00130842 0 0)
(0.00134818 0 0)
(0.00138998 0 0)
(0.00142729 0 0)
(0.0014687 0 0)
(0.00150291 0 0)
(0.00154694 0 0)
(0.00158822 0 0)
(0.0016266 0 0)
(0.00166326 0 0)
(0.00170099 0 0)
(0.00174437 0 0)
(0.0017844 0 0)
(0.00182553 0 0)
(0.00186122 0 0)
(0.00190261 0 0)
(0.00195161 0 0)
(0.00199392 0 0)
(0.00203483 0 0)
(0.00207798 0 0)
(0.0021278 0 0)
(0.00217445 0 0)
(0.00222368 0 0)
(0.00227398 0 0)
(0.00231782 0 0)
(0.00237367 0 0)
(0.00243126 0 0)
(0.00248684 0 0)
(0.00254976 0 0)
(0.00261816 0 0)
(0.00268763 0 0)
(0.00275903 0 0)
(0.00284419 0 0)
(0.00294114 0 0)
(0.00304875 0 0)
(0.00316755 0 0)
(0.00330985 0 0)
(0.00348539 0 0)
(0.00369497 0 0)
(0.00394948 0 0)
(0.00426367 0 0)
(0.00460527 0 0)
(0.00486437 0 0)
(0.00498016 0 0)
(0.00500295 0 0)
(0.00500043 0 0)
(0.00500396 0 0)
(0.00500681 0 0)
(0.00500586 0 0)
(0.00500728 0 0)
(0.00500823 0 0)
(0.00500871 0 0)
(0.00500966 0 0)
(0.00500918 0 0)
(0.00500823 0 0)
(0.00500823 0 0)
(0.00500918 0 0)
(0.00500918 0 0)
(0.00500871 0 0)
(0.00500776 0 0)
(0.00500728 0 0)
(0.00500823 0 0)
(0.00500823 0 0)
(0.00500823 0 0)
(0.00500823 0 0)
(0.00500871 0 0)
(0.00501061 0 0)
)
;

boundaryField
{
    inlet
    {
        type            fixedValue;
        value           uniform (0 0 0);
    }
    outlet
    {
        type            zeroGradient;
    }
    yzfaces
    {
        type            empty;
    }
}


// ************************************************************************* //
