/*--------------------------------*- C++ -*----------------------------------*\
| =========                 |                                                 |
| \\      /  F ield         | foam-extend: Open Source CFD                    |
|  \\    /   O peration     | Version:     5.0                                |
|   \\  /    A nd           | Web:         http://www.foam-extend.org         |
|    \\/     M anipulation  |                                                 |
\*---------------------------------------------------------------------------*/
FoamFile
{
    version     2.0;
    format      ascii;
    class       volScalarField;
    location    "6";
    object      alpha.water;
}
// * * * * * * * * * * * * * * * * * * * * * * * * * * * * * * * * * * * * * //

dimensions      [0 0 0 0 0 0 0];

internalField   nonuniform List<scalar> 
100
(
0.199858
0.19977
0.199688
0.199609
0.199531
0.199453
0.199376
0.199298
0.199221
0.199143
0.199064
0.198984
0.198903
0.19882
0.198736
0.198647
0.198555
0.198459
0.198354
0.19824
0.198111
0.197961
0.197773
0.197524
0.197152
0.196523
0.195192
0.191477
0.179497
0.155058
0.126851
0.100629
0.0778209
0.0587532
0.0431418
0.0315581
0.0227026
0.0174248
0.0137864
0.0119563
0.0109161
0.010448
0.0102203
0.0100247
0.00986345
0.00977779
0.0098059
0.00974938
0.00982119
0.00978864
0.00992047
0.00988711
0.00988045
0.0100883
0.00997702
0.0101836
0.0101589
0.0102227
0.0101708
0.0101587
0.0100603
0.010021
0.0101038
0.00991307
0.00993989
0.00994222
0.00996406
0.009958
0.00997669
0.00994562
0.00993553
0.00997333
0.0099841
0.00999183
0.00994831
0.00995482
0.00998468
0.0100072
0.0100768
0.0100999
0.0101018
0.0100832
0.0100807
0.0100572
0.0100556
0.00988502
0.0100363
0.010003
0.0100204
0.0100912
0.0100743
0.0100627
0.0100501
0.0101726
0.0101876
0.0102239
0.0102697
0.010205
0.0103557
0.010321
)
;

boundaryField
{
    inlet
    {
        type            fixedValue;
        value           uniform 0.2;
    }
    outlet
    {
        type            zeroGradient;
    }
    yzfaces
    {
        type            empty;
    }
}


// ************************************************************************* //
