/*--------------------------------*- C++ -*----------------------------------*\
| =========                 |                                                 |
| \\      /  F ield         | foam-extend: Open Source CFD                    |
|  \\    /   O peration     | Version:     5.0                                |
|   \\  /    A nd           | Web:         http://www.foam-extend.org         |
|    \\/     M anipulation  |                                                 |
\*---------------------------------------------------------------------------*/
FoamFile
{
    version     2.0;
    format      ascii;
    class       volScalarField;
    location    "6";
    object      S.water;
}
// * * * * * * * * * * * * * * * * * * * * * * * * * * * * * * * * * * * * * //

dimensions      [0 0 0 0 0 0 0];

internalField   nonuniform List<scalar> 
100
(
0.999291
0.998852
0.998442
0.998045
0.997654
0.997265
0.996879
0.996492
0.996105
0.995714
0.995321
0.994922
0.994517
0.994102
0.993678
0.993237
0.992777
0.992293
0.991772
0.991199
0.990553
0.989803
0.988863
0.98762
0.98576
0.982614
0.97596
0.957385
0.897484
0.775288
0.634257
0.503143
0.389105
0.293766
0.215709
0.157791
0.113513
0.087124
0.0689319
0.0597813
0.0545807
0.05224
0.0511015
0.0501235
0.0493172
0.0488889
0.0490295
0.0487469
0.049106
0.0489432
0.0496024
0.0494355
0.0494022
0.0504417
0.0498851
0.0509181
0.0507943
0.0511135
0.0508539
0.0507933
0.0503013
0.0501051
0.0505192
0.0495653
0.0496995
0.0497111
0.0498203
0.04979
0.0498834
0.0497281
0.0496777
0.0498666
0.0499205
0.0499592
0.0497415
0.0497741
0.0499234
0.0500358
0.0503839
0.0504994
0.0505091
0.0504158
0.0504034
0.0502858
0.0502781
0.0494251
0.0501816
0.050015
0.0501018
0.0504562
0.0503716
0.0503134
0.0502503
0.0508631
0.0509382
0.0511197
0.0513486
0.0510248
0.0517787
0.0516048
)
;

boundaryField
{
    inlet
    {
        type            calculated;
        value           uniform 1;
    }
    outlet
    {
        type            calculated;
        value           uniform 0.0516048;
    }
    yzfaces
    {
        type            empty;
    }
}


// ************************************************************************* //
