/*--------------------------------*- C++ -*----------------------------------*\
| =========                 |                                                 |
| \\      /  F ield         | foam-extend: Open Source CFD                    |
|  \\    /   O peration     | Version:     5.0                                |
|   \\  /    A nd           | Web:         http://www.foam-extend.org         |
|    \\/     M anipulation  |                                                 |
\*---------------------------------------------------------------------------*/
FoamFile
{
    version     2.0;
    format      ascii;
    class       volScalarField;
    location    "6";
    object      XCO2;
}
// * * * * * * * * * * * * * * * * * * * * * * * * * * * * * * * * * * * * * //

dimensions      [0 0 0 0 0 0 0];

internalField   nonuniform List<scalar> 
100
(
0
0.00174154
0.00215005
0.00334609
0
0.00369037
0.0044765
0
0.00686827
0.00081147
0.00467624
0.0013591
0.0095017
0
0.0159731
0.00117082
0.013768
0.00312338
0.0117497
0.0112324
0
0.0192107
0.00677777
0.0083563
0.0134364
0.0190621
0.00331063
0.0288358
0.00301757
0.0443481
0.00891243
0.0473504
0.00608186
0.0472124
0.0347456
0.0793921
0
0.118702
0.0627343
0.0336788
0.0941612
0.0288961
0.0620371
0.0935455
0.0388261
0
0.0446508
0.0046768
0.0643868
0.015717
0.0563531
0.00409404
0.0171329
0.0455628
0.0418155
0.0585622
0.0202554
0.136553
0.0723889
0.0729587
0.06619
0.00923351
0.118635
0.0300689
0.0715012
0.00956706
0.0431749
0.0998895
0.00534627
0.0466298
0
0.0515264
0.0946881
0.0188931
0.0901393
0
0.0159172
0.0717868
0.0189551
0.0126097
0.106891
0.0492334
0.0487214
0.0639916
0.0723947
0.108032
0.0190946
0.111029
0.0275222
0.0603638
0.0252217
0.0650968
0.0577429
0.019826
0.0624411
0.0648911
0.0370105
0.110884
0.0206893
0.422025
)
;

boundaryField
{
    inlet
    {
        type            fixedValue;
        value           uniform 0;
    }
    outlet
    {
        type            zeroGradient;
    }
    yzfaces
    {
        type            empty;
    }
}


// ************************************************************************* //
