/*--------------------------------*- C++ -*----------------------------------*\
| =========                 |                                                 |
| \\      /  F ield         | foam-extend: Open Source CFD                    |
|  \\    /   O peration     | Version:     5.0                                |
|   \\  /    A nd           | Web:         http://www.foam-extend.org         |
|    \\/     M anipulation  |                                                 |
\*---------------------------------------------------------------------------*/
FoamFile
{
    version     2.0;
    format      ascii;
    class       volScalarField;
    location    "6";
    object      XH2O;
}
// * * * * * * * * * * * * * * * * * * * * * * * * * * * * * * * * * * * * * //

dimensions      [0 0 0 0 0 0 0];

internalField   nonuniform List<scalar> 
100
(
1
0.998258
0.99785
0.996654
1
0.99631
0.995524
1
0.993132
0.999189
0.995324
0.998641
0.990498
1
0.984027
0.998829
0.986232
0.996877
0.98825
0.988768
1
0.980789
0.993222
0.991644
0.986564
0.980938
0.996689
0.971164
0.996982
0.955652
0.991088
0.95265
0.993918
0.952788
0.965254
0.920608
1
0.881298
0.937266
0.966321
0.905839
0.971104
0.937963
0.906454
0.961174
1
0.955349
0.995323
0.935613
0.984283
0.943647
0.995906
0.982867
0.954437
0.958184
0.941438
0.979745
0.863447
0.927611
0.927041
0.93381
0.990766
0.881365
0.969931
0.928499
0.990433
0.956825
0.90011
0.994654
0.95337
1
0.948474
0.905312
0.981107
0.909861
1
0.984083
0.928213
0.981045
0.98739
0.893109
0.950767
0.951279
0.936008
0.927605
0.891968
0.980905
0.888971
0.972478
0.939636
0.974778
0.934903
0.942257
0.980174
0.937559
0.935109
0.96299
0.889116
0.979311
0.577975
)
;

boundaryField
{
    inlet
    {
        type            fixedValue;
        value           uniform 1;
    }
    outlet
    {
        type            zeroGradient;
    }
    yzfaces
    {
        type            empty;
    }
}


// ************************************************************************* //
