/*--------------------------------*- C++ -*----------------------------------*\
| =========                 |                                                 |
| \\      /  F ield         | foam-extend: Open Source CFD                    |
|  \\    /   O peration     | Version:     5.0                                |
|   \\  /    A nd           | Web:         http://www.foam-extend.org         |
|    \\/     M anipulation  |                                                 |
\*---------------------------------------------------------------------------*/
FoamFile
{
    version     2.0;
    format      ascii;
    class       volVectorField;
    location    "1";
    object      U.gas;
}
// * * * * * * * * * * * * * * * * * * * * * * * * * * * * * * * * * * * * * //

dimensions      [0 1 -1 0 0 0 0];

internalField   nonuniform List<vector> 
100
(
(0.00226329 0 0)
(0.00457873 0 0)
(0.00481588 0 0)
(0.00474527 0 0)
(0.00476977 0 0)
(0.00482668 0 0)
(0.00491358 0 0)
(0.00497259 0 0)
(0.00495611 0 0)
(0.00497372 0 0)
(0.00498402 0 0)
(0.0049762 0 0)
(0.00495902 0 0)
(0.00501789 0 0)
(0.00504816 0 0)
(0.00498733 0 0)
(0.00501774 0 0)
(0.00513938 0 0)
(0.00523061 0 0)
(0.00513938 0 0)
(0.00513938 0 0)
(0.00523061 0 0)
(0.00510897 0 0)
(0.00507856 0 0)
(0.00513938 0 0)
(0.00510897 0 0)
(0.00513938 0 0)
(0.00516979 0 0)
(0.0052002 0 0)
(0.0052002 0 0)
(0.00510897 0 0)
(0.00504815 0 0)
(0.00507856 0 0)
(0.00513938 0 0)
(0.00510897 0 0)
(0.00507856 0 0)
(0.00504815 0 0)
(0.00504815 0 0)
(0.00513938 0 0)
(0.00513938 0 0)
(0.00507856 0 0)
(0.00504815 0 0)
(0.00504815 0 0)
(0.00498733 0 0)
(0.00486569 0 0)
(0.00486569 0 0)
(0.0048961 0 0)
(0.00480486 0 0)
(0.00480486 0 0)
(0.00486569 0 0)
(0.0048961 0 0)
(0.00495692 0 0)
(0.00486569 0 0)
(0.00474404 0 0)
(0.00471363 0 0)
(0.00471363 0 0)
(0.00477445 0 0)
(0.00483527 0 0)
(0.0048961 0 0)
(0.00486569 0 0)
(0.00486569 0 0)
(0.00495692 0 0)
(0.00495692 0 0)
(0.00492651 0 0)
(0.00495692 0 0)
(0.00492651 0 0)
(0.00483527 0 0)
(0.00477445 0 0)
(0.00477445 0 0)
(0.00483527 0 0)
(0.00474404 0 0)
(0.00468322 0 0)
(0.00477445 0 0)
(0.00483527 0 0)
(0.00477445 0 0)
(0.00474404 0 0)
(0.00480486 0 0)
(0.00480486 0 0)
(0.00477445 0 0)
(0.00477445 0 0)
(0.00477445 0 0)
(0.00477445 0 0)
(0.00486569 0 0)
(0.00483527 0 0)
(0.00477445 0 0)
(0.00474404 0 0)
(0.00468322 0 0)
(0.00474404 0 0)
(0.00486569 0 0)
(0.00486569 0 0)
(0.00480486 0 0)
(0.00477445 0 0)
(0.00471363 0 0)
(0.00480486 0 0)
(0.00486569 0 0)
(0.00477445 0 0)
(0.00474404 0 0)
(0.00474404 0 0)
(0.00474404 0 0)
(0.00480486 0 0)
)
;

boundaryField
{
    inlet
    {
        type            fixedValue;
        value           uniform (0 0 0);
    }
    outlet
    {
        type            zeroGradient;
    }
    yzfaces
    {
        type            empty;
    }
}


// ************************************************************************* //
