/*--------------------------------*- C++ -*----------------------------------*\
| =========                 |                                                 |
| \\      /  F ield         | foam-extend: Open Source CFD                    |
|  \\    /   O peration     | Version:     5.0                                |
|   \\  /    A nd           | Web:         http://www.foam-extend.org         |
|    \\/     M anipulation  |                                                 |
\*---------------------------------------------------------------------------*/
FoamFile
{
    version     2.0;
    format      ascii;
    class       volScalarField;
    location    "1";
    object      XH2O;
}
// * * * * * * * * * * * * * * * * * * * * * * * * * * * * * * * * * * * * * //

dimensions      [0 0 0 0 0 0 0];

internalField   nonuniform List<scalar> 
100
(
0.97984
0.939536
0.839842
0.678895
0.536118
0.400577
0.276865
0.17457
0.102878
0.0488903
0.017627
0.00392189
0.000407633
2.99361e-05
2.14236e-06
2.93223e-08
2.82557e-11
1.98745e-15
1.02286e-20
3.81574e-27
1.01782e-34
1.97787e-43
2.7542e-53
2.71233e-64
1.92154e-76
9.56319e-90
3.36798e-104
8.36235e-120
1.45931e-136
1.78098e-154
1.5156e-173
8.96812e-194
3.68088e-215
1.04429e-237
2.06724e-261
2.78872e-286
2.61578e-312
0
0
0
0
0
0
0
0
0
0
0
0
0
0
0
0
0
0
0
0
0
0
0
0
0
0
0
0
0
0
0
0
0
0
0
0
0
0
0
0
0
0
0
0
0
0
0
0
0
0
0
0
0
0
0
0
0
0
0
0
0
0
0
)
;

boundaryField
{
    inlet
    {
        type            fixedValue;
        value           uniform 1;
    }
    outlet
    {
        type            zeroGradient;
    }
    yzfaces
    {
        type            empty;
    }
}


// ************************************************************************* //
