/*--------------------------------*- C++ -*----------------------------------*\
| =========                 |                                                 |
| \\      /  F ield         | foam-extend: Open Source CFD                    |
|  \\    /   O peration     | Version:     5.0                                |
|   \\  /    A nd           | Web:         http://www.foam-extend.org         |
|    \\/     M anipulation  |                                                 |
\*---------------------------------------------------------------------------*/
FoamFile
{
    version     2.0;
    format      ascii;
    class       volScalarField;
    location    "1";
    object      YH2O;
}
// * * * * * * * * * * * * * * * * * * * * * * * * * * * * * * * * * * * * * //

dimensions      [0 0 0 0 0 0 0];

internalField   nonuniform List<scalar> 
100
(
0.980751
0.956173
0.810857
0.708868
0.504623
0.404261
0.272784
0.182261
0.0811623
0.0516959
-0.00895109
0.0113012
-0.0239818
0.0603615
-0.00260331
0.0422725
-0.00209327
0.0111022
0.0185329
-0.0195623
0.0358038
-0.0139343
-0.0126959
0.0219446
-0.00939305
0.0167085
0.0198064
-0.0279168
0.0275329
-0.00961924
-0.00253756
-0.00144082
-0.0314902
0.0261644
-0.0033971
-0.00720119
-0.00746863
-0.0378354
0.0349085
-0.0254308
0.00102883
0.00174101
-0.0153186
-0.00721606
-0.0377274
0.000617961
-0.0572121
0.00370703
-0.0353056
0.0307347
0.00230645
-0.00575354
-0.00770975
-0.0461474
-0.0260153
0.0025044
-0.00916809
0.0456667
0.0316802
-0.0611299
0.0489117
0.0072399
-0.000690666
-0.0248234
0.0190515
0.00785601
-0.0209867
-0.0186133
0.00825601
-0.0329409
0.0065795
-0.00606376
-0.0026501
-0.0041268
-0.0236629
0.0255166
-0.0367306
0.0227376
-0.0234111
0.0123195
-0.00608211
-0.0139565
0.0216173
-0.0535926
0.0472782
-0.00459711
-0.0105672
0.017837
0.0342938
-0.0282772
-0.0100659
-0.0190176
-0.0528185
0.0329944
-0.0248235
0.00369826
0.00279735
-0.0403357
0.00299335
0.0138201
)
;

boundaryField
{
    inlet
    {
        type            calculated;
        value           uniform 1;
    }
    outlet
    {
        type            calculated;
        value           uniform 0.0138201;
    }
    yzfaces
    {
        type            empty;
    }
}


// ************************************************************************* //
