/*--------------------------------*- C++ -*----------------------------------*\
| =========                 |                                                 |
| \\      /  F ield         | foam-extend: Open Source CFD                    |
|  \\    /   O peration     | Version:     5.0                                |
|   \\  /    A nd           | Web:         http://www.foam-extend.org         |
|    \\/     M anipulation  |                                                 |
\*---------------------------------------------------------------------------*/
FoamFile
{
    version     2.0;
    format      ascii;
    class       volScalarField;
    location    "9";
    object      alpha.gas;
}
// * * * * * * * * * * * * * * * * * * * * * * * * * * * * * * * * * * * * * //

dimensions      [0 0 0 0 0 0 0];

internalField   nonuniform List<scalar> 
100
(
0.0916458
0.0904075
0.0892089
0.0879632
0.0868141
0.0856584
0.0844038
0.0834294
0.0823315
0.0812736
0.0802543
0.0791351
0.0781912
0.0772482
0.0762521
0.075303
0.0743686
0.073566
0.0726253
0.071799
0.0709726
0.0701505
0.0693517
0.068575
0.0677112
0.0670633
0.0663538
0.0656342
0.0650171
0.0643579
0.0637226
0.0630987
0.0624899
0.0619241
0.0613093
0.060728
0.0601986
0.0596436
0.0590835
0.0586124
0.0580295
0.057562
0.0570941
0.0565899
0.056142
0.0556748
0.0552114
0.0548085
0.0543501
0.0539742
0.0536059
0.0531728
0.0527372
0.0523531
0.0519877
0.0515548
0.0511664
0.0507708
0.0503734
0.0500907
0.0497325
0.0494454
0.0491421
0.0487861
0.0484677
0.0481735
0.0478591
0.0475487
0.0472393
0.0470024
0.0467158
0.0464038
0.0461468
0.0458536
0.0455975
0.0453232
0.0450377
0.0447544
0.0444713
0.0442492
0.0440132
0.043733
0.0435042
0.0432541
0.043016
0.0427692
0.0425539
0.042329
0.0421065
0.0418831
0.0416726
0.0414367
0.0412078
0.0409994
0.0407941
0.0405619
0.040369
0.0402209
0.0401092
0.0400462
)
;

boundaryField
{
    inlet
    {
        type            fixedValue;
        value           uniform 0.2;
    }
    outlet
    {
        type            zeroGradient;
    }
    yzfaces
    {
        type            empty;
    }
}


// ************************************************************************* //
