/*--------------------------------*- C++ -*----------------------------------*\
| =========                 |                                                 |
| \\      /  F ield         | foam-extend: Open Source CFD                    |
|  \\    /   O peration     | Version:     5.0                                |
|   \\  /    A nd           | Web:         http://www.foam-extend.org         |
|    \\/     M anipulation  |                                                 |
\*---------------------------------------------------------------------------*/
FoamFile
{
    version     2.0;
    format      ascii;
    class       volVectorField;
    location    "9";
    object      U.gas;
}
// * * * * * * * * * * * * * * * * * * * * * * * * * * * * * * * * * * * * * //

dimensions      [0 1 -1 0 0 0 0];

internalField   nonuniform List<vector> 
100
(
(0.0109132 0 0)
(0.0110599 0 0)
(0.0111946 0 0)
(0.0113252 0 0)
(0.0114471 0 0)
(0.0116016 0 0)
(0.011778 0 0)
(0.0118878 0 0)
(0.0120225 0 0)
(0.0121588 0 0)
(0.0122856 0 0)
(0.0124285 0 0)
(0.0125256 0 0)
(0.012641 0 0)
(0.0128037 0 0)
(0.0129602 0 0)
(0.0131505 0 0)
(0.0132986 0 0)
(0.0134476 0 0)
(0.013593 0 0)
(0.0137234 0 0)
(0.0138401 0 0)
(0.0139229 0 0)
(0.0140253 0 0)
(0.0142152 0 0)
(0.0143449 0 0)
(0.0144345 0 0)
(0.014542 0 0)
(0.0146442 0 0)
(0.0147568 0 0)
(0.0148589 0 0)
(0.0149575 0 0)
(0.0150658 0 0)
(0.015156 0 0)
(0.0152488 0 0)
(0.0153497 0 0)
(0.0154233 0 0)
(0.0155122 0 0)
(0.0156409 0 0)
(0.0157289 0 0)
(0.0158413 0 0)
(0.0159478 0 0)
(0.0160347 0 0)
(0.0161089 0 0)
(0.0162102 0 0)
(0.0163042 0 0)
(0.0163749 0 0)
(0.0164473 0 0)
(0.0165389 0 0)
(0.016622 0 0)
(0.0166987 0 0)
(0.0167971 0 0)
(0.0168993 0 0)
(0.0169714 0 0)
(0.0170323 0 0)
(0.0171401 0 0)
(0.0172354 0 0)
(0.0173167 0 0)
(0.0173926 0 0)
(0.017442 0 0)
(0.0175391 0 0)
(0.0175834 0 0)
(0.0176336 0 0)
(0.0177339 0 0)
(0.0178022 0 0)
(0.0178491 0 0)
(0.0179003 0 0)
(0.0179563 0 0)
(0.0180348 0 0)
(0.0180855 0 0)
(0.0181489 0 0)
(0.0182314 0 0)
(0.0182811 0 0)
(0.0183475 0 0)
(0.0183994 0 0)
(0.0184634 0 0)
(0.0185398 0 0)
(0.0186084 0 0)
(0.0186844 0 0)
(0.0187212 0 0)
(0.0187584 0 0)
(0.0188383 0 0)
(0.0189012 0 0)
(0.0189572 0 0)
(0.0190081 0 0)
(0.019062 0 0)
(0.0191036 0 0)
(0.019148 0 0)
(0.0191858 0 0)
(0.0192402 0 0)
(0.0192875 0 0)
(0.0193432 0 0)
(0.019397 0 0)
(0.0194395 0 0)
(0.0194745 0 0)
(0.0195184 0 0)
(0.0195604 0 0)
(0.0195891 0 0)
(0.0196022 0 0)
(0.0195488 0 0)
)
;

boundaryField
{
    inlet
    {
        type            fixedValue;
        value           uniform (0.005 0 0);
    }
    outlet
    {
        type            zeroGradient;
    }
    yzfaces
    {
        type            empty;
    }
}


// ************************************************************************* //
