/*--------------------------------*- C++ -*----------------------------------*\
| =========                 |                                                 |
| \\      /  F ield         | foam-extend: Open Source CFD                    |
|  \\    /   O peration     | Version:     5.0                                |
|   \\  /    A nd           | Web:         http://www.foam-extend.org         |
|    \\/     M anipulation  |                                                 |
\*---------------------------------------------------------------------------*/
FoamFile
{
    version     2.0;
    format      ascii;
    class       volVectorField;
    location    "9";
    object      U.water;
}
// * * * * * * * * * * * * * * * * * * * * * * * * * * * * * * * * * * * * * //

dimensions      [0 1 -1 0 0 0 0];

internalField   nonuniform List<vector> 
100
(
(8.14468e-06 0 0)
(2.4658e-05 0 0)
(3.39294e-05 0 0)
(4.78959e-05 0 0)
(6.51975e-05 0 0)
(6.6879e-05 0 0)
(9.33861e-05 0 0)
(0.000116946 0 0)
(0.000120163 0 0)
(0.000137119 0 0)
(0.000142932 0 0)
(0.00016058 0 0)
(0.000185686 0 0)
(0.00019186 0 0)
(0.000203125 0 0)
(0.000220823 0 0)
(0.000245971 0 0)
(0.000257591 0 0)
(0.000268158 0 0)
(0.000290782 0 0)
(0.000303494 0 0)
(0.000317417 0 0)
(0.000332056 0 0)
(0.00033899 0 0)
(0.000363238 0 0)
(0.000388959 0 0)
(0.000394828 0 0)
(0.00041371 0 0)
(0.000430245 0 0)
(0.0004412 0 0)
(0.000455928 0 0)
(0.0004701 0 0)
(0.00048709 0 0)
(0.000498627 0 0)
(0.000509401 0 0)
(0.000528748 0 0)
(0.000542335 0 0)
(0.000551687 0 0)
(0.000571529 0 0)
(0.00058221 0 0)
(0.0005948 0 0)
(0.000617055 0 0)
(0.000626998 0 0)
(0.0006403 0 0)
(0.000656117 0 0)
(0.000666925 0 0)
(0.000682734 0 0)
(0.000695496 0 0)
(0.000709846 0 0)
(0.000729232 0 0)
(0.000737205 0 0)
(0.000744837 0 0)
(0.000761228 0 0)
(0.000778571 0 0)
(0.000787537 0 0)
(0.000799481 0 0)
(0.000816702 0 0)
(0.000829606 0 0)
(0.00085056 0 0)
(0.000865414 0 0)
(0.000876686 0 0)
(0.000892417 0 0)
(0.000898514 0 0)
(0.000909876 0 0)
(0.000927731 0 0)
(0.000939229 0 0)
(0.000947993 0 0)
(0.00096042 0 0)
(0.00097898 0 0)
(0.000992333 0 0)
(0.000997465 0 0)
(0.0010124 0 0)
(0.00102533 0 0)
(0.00103652 0 0)
(0.00105083 0 0)
(0.00106116 0 0)
(0.00107352 0 0)
(0.00108696 0 0)
(0.00110448 0 0)
(0.00111965 0 0)
(0.0011256 0 0)
(0.00113822 0 0)
(0.00115409 0 0)
(0.00116566 0 0)
(0.00117857 0 0)
(0.00119269 0 0)
(0.00120506 0 0)
(0.00121522 0 0)
(0.00122654 0 0)
(0.00123949 0 0)
(0.00125044 0 0)
(0.00126104 0 0)
(0.00127658 0 0)
(0.00129029 0 0)
(0.00129921 0 0)
(0.00131132 0 0)
(0.00132886 0 0)
(0.00134511 0 0)
(0.00135863 0 0)
(0.00136825 0 0)
)
;

boundaryField
{
    inlet
    {
        type            fixedValue;
        value           uniform (0 0 0);
    }
    outlet
    {
        type            zeroGradient;
    }
    yzfaces
    {
        type            empty;
    }
}


// ************************************************************************* //
