/*--------------------------------*- C++ -*----------------------------------*\
| =========                 |                                                 |
| \\      /  F ield         | foam-extend: Open Source CFD                    |
|  \\    /   O peration     | Version:     5.0                                |
|   \\  /    A nd           | Web:         http://www.foam-extend.org         |
|    \\/     M anipulation  |                                                 |
\*---------------------------------------------------------------------------*/
FoamFile
{
    version     2.0;
    format      ascii;
    class       volScalarField;
    location    "2";
    object      alpha.gas;
}
// * * * * * * * * * * * * * * * * * * * * * * * * * * * * * * * * * * * * * //

dimensions      [0 0 0 0 0 0 0];

internalField   nonuniform List<scalar> 
100
(
0.107708
0.0902289
0.0807173
0.0740143
0.0689538
0.0650962
0.0616578
0.0587629
0.0562083
0.0539919
0.0521687
0.0504958
0.0490167
0.0475796
0.0461971
0.0449791
0.0438139
0.0427641
0.0417858
0.040834
0.0398963
0.039067
0.0382544
0.0374439
0.0366436
0.0358831
0.0352343
0.034511
0.0338343
0.0331987
0.0325632
0.0319302
0.0313398
0.0307349
0.030147
0.029581
0.0290273
0.0284945
0.0279323
0.0273815
0.0268616
0.0263374
0.0258297
0.0253183
0.0248078
0.0242958
0.0237894
0.0232748
0.0227601
0.0222421
0.0217178
0.0211952
0.0206682
0.0201307
0.0195987
0.0190658
0.0185297
0.0179908
0.017445
0.0168937
0.0163496
0.0158039
0.0152638
0.0147346
0.0142282
0.0137378
0.0132699
0.0128316
0.0124232
0.0120537
0.0117196
0.0114263
0.0111709
0.0109543
0.0107716
0.010617
0.0104907
0.0103887
0.010305
0.0102382
0.0101856
0.0101431
0.0101111
0.0100818
0.0100624
0.0100479
0.0100362
0.0100265
0.0100203
0.0100128
0.0100092
0.0100068
0.0100033
0.00999921
0.010001
0.0100018
0.0100004
0.00999962
0.00999911
0.0100018
)
;

boundaryField
{
    inlet
    {
        type            fixedValue;
        value           uniform 0.2;
    }
    outlet
    {
        type            zeroGradient;
    }
    yzfaces
    {
        type            empty;
    }
}


// ************************************************************************* //
