/*--------------------------------*- C++ -*----------------------------------*\
| =========                 |                                                 |
| \\      /  F ield         | foam-extend: Open Source CFD                    |
|  \\    /   O peration     | Version:     5.0                                |
|   \\  /    A nd           | Web:         http://www.foam-extend.org         |
|    \\/     M anipulation  |                                                 |
\*---------------------------------------------------------------------------*/
FoamFile
{
    version     2.0;
    format      ascii;
    class       volScalarField;
    location    "2";
    object      CO2.gas;
}
// * * * * * * * * * * * * * * * * * * * * * * * * * * * * * * * * * * * * * //

dimensions      [0 0 0 0 0 0 0];

internalField   nonuniform List<scalar> 
100
(
0.107565
0.0900359
0.0807018
0.074013
0.0689682
0.0652074
0.0616462
0.0587485
0.0561584
0.0539554
0.052163
0.0504741
0.0490473
0.0475547
0.0461679
0.0449644
0.0437896
0.0427475
0.0417611
0.0407992
0.0398472
0.0390009
0.0381529
0.037317
0.0364561
0.035646
0.0349365
0.0340794
0.0332865
0.0325062
0.0316617
0.0307907
0.0299208
0.0289642
0.0279909
0.0269939
0.0259255
0.0248173
0.0236158
0.0223735
0.0211133
0.0197821
0.0184373
0.0170482
0.0156375
0.0142256
0.0128286
0.0114485
0.0101161
0.0088392
0.00763187
0.0065092
0.0054759
0.00453821
0.003707
0.00297899
0.00235347
0.0018261
0.00138915
0.00103576
0.000756768
0.000541142
0.00037872
0.000259481
0.000174097
0.00011461
7.42307e-05
4.74651e-05
3.00975e-05
1.90027e-05
1.2002e-05
7.60768e-06
4.84467e-06
3.10141e-06
1.99203e-06
1.28136e-06
8.2335e-07
5.26837e-07
3.3558e-07
2.12472e-07
1.33685e-07
8.3612e-08
5.20329e-08
3.22142e-08
1.98699e-08
1.22156e-08
7.48898e-09
4.58525e-09
2.80396e-09
1.71283e-09
1.04705e-09
6.39843e-10
3.91141e-10
2.39195e-10
1.46362e-10
8.95519e-11
5.47945e-11
3.35368e-11
2.0519e-11
1.47714e-11
)
;

boundaryField
{
    inlet
    {
        type            fixedValue;
        value           uniform 0.2;
    }
    outlet
    {
        type            zeroGradient;
    }
    yzfaces
    {
        type            empty;
    }
}


// ************************************************************************* //
