/*--------------------------------*- C++ -*----------------------------------*\
| =========                 |                                                 |
| \\      /  F ield         | foam-extend: Open Source CFD                    |
|  \\    /   O peration     | Version:     5.0                                |
|   \\  /    A nd           | Web:         http://www.foam-extend.org         |
|    \\/     M anipulation  |                                                 |
\*---------------------------------------------------------------------------*/
FoamFile
{
    version     2.0;
    format      ascii;
    class       volScalarField;
    location    "2";
    object      H2O.gas;
}
// * * * * * * * * * * * * * * * * * * * * * * * * * * * * * * * * * * * * * //

dimensions      [0 0 0 0 0 0 0];

internalField   nonuniform List<scalar> 
100
(
4.92155e-11
2.54459e-10
8.90496e-10
2.55439e-09
6.47554e-09
1.50405e-08
3.24119e-08
6.62757e-08
1.29491e-07
2.44216e-07
4.45799e-07
7.84913e-07
1.34864e-06
2.24893e-06
3.66203e-06
5.8444e-06
9.13149e-06
1.40074e-05
2.10956e-05
3.12037e-05
4.53664e-05
6.50202e-05
9.16906e-05
0.000127515
0.000174725
0.000236669
0.000317007
0.000418152
0.000546095
0.000705397
0.000899752
0.00113484
0.00141697
0.00174845
0.00213655
0.00258488
0.00309482
0.00366773
0.00429736
0.00498994
0.00574513
0.00654634
0.00739541
0.00827329
0.00916834
0.0100685
0.0109598
0.011819
0.0126357
0.013393
0.0140769
0.0146818
0.0151893
0.0155878
0.0158923
0.0160886
0.0161763
0.0161676
0.0160517
0.0158524
0.0155882
0.0152583
0.0148834
0.0144779
0.0140528
0.0136186
0.0131912
0.0127777
0.0123908
0.012032
0.0117037
0.0114146
0.0111629
0.0109485
0.0107652
0.0106115
0.0104891
0.0103851
0.0103029
0.0102397
0.0101868
0.0101456
0.010114
0.0100836
0.0100652
0.0100491
0.0100352
0.0100284
0.0100235
0.0100128
0.0100085
0.0100078
0.0100038
0.0100013
0.0100038
0.010003
0.00999967
0.00999865
0.00999909
0.0100021
)
;

boundaryField
{
    inlet
    {
        type            fixedValue;
        value           uniform 0;
    }
    outlet
    {
        type            zeroGradient;
    }
    yzfaces
    {
        type            empty;
    }
}


// ************************************************************************* //
