/*--------------------------------*- C++ -*----------------------------------*\
| =========                 |                                                 |
| \\      /  F ield         | foam-extend: Open Source CFD                    |
|  \\    /   O peration     | Version:     5.0                                |
|   \\  /    A nd           | Web:         http://www.foam-extend.org         |
|    \\/     M anipulation  |                                                 |
\*---------------------------------------------------------------------------*/
FoamFile
{
    version     2.0;
    format      ascii;
    class       surfaceScalarField;
    location    "2";
    object      phi;
}
// * * * * * * * * * * * * * * * * * * * * * * * * * * * * * * * * * * * * * //

dimensions      [0 3 -1 0 0 0 0];

internalField   nonuniform List<scalar> 
99
(
1.21962e-06
1.22537e-06
1.22624e-06
1.22335e-06
1.22521e-06
1.22437e-06
1.22373e-06
1.22209e-06
1.2192e-06
1.22139e-06
1.22172e-06
1.22224e-06
1.2223e-06
1.22177e-06
1.22279e-06
1.22363e-06
1.22304e-06
1.2235e-06
1.22144e-06
1.22178e-06
1.22318e-06
1.22158e-06
1.22197e-06
1.22161e-06
1.22173e-06
1.22256e-06
1.2208e-06
1.22169e-06
1.22108e-06
1.2206e-06
1.21962e-06
1.22001e-06
1.21999e-06
1.22152e-06
1.22167e-06
1.22262e-06
1.22187e-06
1.22188e-06
1.22216e-06
1.2224e-06
1.22275e-06
1.22254e-06
1.22181e-06
1.22136e-06
1.22094e-06
1.22022e-06
1.21968e-06
1.21885e-06
1.21927e-06
1.21906e-06
1.21921e-06
1.21858e-06
1.21875e-06
1.21916e-06
1.21914e-06
1.21873e-06
1.21844e-06
1.21778e-06
1.21769e-06
1.21833e-06
1.21803e-06
1.21838e-06
1.21865e-06
1.21921e-06
1.21916e-06
1.21916e-06
1.21865e-06
1.21849e-06
1.21844e-06
1.21808e-06
1.21848e-06
1.21852e-06
1.21911e-06
1.21868e-06
1.2187e-06
1.21894e-06
1.21901e-06
1.21893e-06
1.21969e-06
1.21964e-06
1.21961e-06
1.21995e-06
1.21993e-06
1.2205e-06
1.22016e-06
1.21943e-06
1.21989e-06
1.21897e-06
1.21935e-06
1.21936e-06
1.21951e-06
1.21865e-06
1.21861e-06
1.21923e-06
1.21904e-06
1.21877e-06
1.21885e-06
1.21951e-06
1.21916e-06
)
;

boundaryField
{
    inlet
    {
        type            calculated;
        value           uniform -1.225e-06;
    }
    outlet
    {
        type            calculated;
        value           uniform 1.21917e-06;
    }
    yzfaces
    {
        type            empty;
    }
}


// ************************************************************************* //
