/*--------------------------------*- C++ -*----------------------------------*\
| =========                 |                                                 |
| \\      /  F ield         | foam-extend: Open Source CFD                    |
|  \\    /   O peration     | Version:     5.0                                |
|   \\  /    A nd           | Web:         http://www.foam-extend.org         |
|    \\/     M anipulation  |                                                 |
\*---------------------------------------------------------------------------*/
FoamFile
{
    version     2.0;
    format      ascii;
    class       volVectorField;
    location    "2";
    object      U.water;
}
// * * * * * * * * * * * * * * * * * * * * * * * * * * * * * * * * * * * * * //

dimensions      [0 1 -1 0 0 0 0];

internalField   nonuniform List<vector> 
100
(
(6.88637e-05 0 0)
(0.000173457 0 0)
(0.000261728 0 0)
(0.000339454 0 0)
(0.000412901 0 0)
(0.0004818 0 0)
(0.000547834 0 0)
(0.000613964 0 0)
(0.000677474 0 0)
(0.000741292 0 0)
(0.000802163 0 0)
(0.000859048 0 0)
(0.000914607 0 0)
(0.000968854 0 0)
(0.00102594 0 0)
(0.00108264 0 0)
(0.00113685 0 0)
(0.00119068 0 0)
(0.00124161 0 0)
(0.00129199 0 0)
(0.00134573 0 0)
(0.00139761 0 0)
(0.00144705 0 0)
(0.00149852 0 0)
(0.00155146 0 0)
(0.00160551 0 0)
(0.00165528 0 0)
(0.00170487 0 0)
(0.00175842 0 0)
(0.00180912 0 0)
(0.00185933 0 0)
(0.00191167 0 0)
(0.0019645 0 0)
(0.00201842 0 0)
(0.00207377 0 0)
(0.0021283 0 0)
(0.0021818 0 0)
(0.00223472 0 0)
(0.00228965 0 0)
(0.00234673 0 0)
(0.00240343 0 0)
(0.00245942 0 0)
(0.00251486 0 0)
(0.00257022 0 0)
(0.00262687 0 0)
(0.00268437 0 0)
(0.00274281 0 0)
(0.00280176 0 0)
(0.0028632 0 0)
(0.00292667 0 0)
(0.00299134 0 0)
(0.00305675 0 0)
(0.00312307 0 0)
(0.00319243 0 0)
(0.00326274 0 0)
(0.00333203 0 0)
(0.00340177 0 0)
(0.00347203 0 0)
(0.00354343 0 0)
(0.00361764 0 0)
(0.00369154 0 0)
(0.00376453 0 0)
(0.00383799 0 0)
(0.00391033 0 0)
(0.0039796 0 0)
(0.00404472 0 0)
(0.00410563 0 0)
(0.00416225 0 0)
(0.00421492 0 0)
(0.0042623 0 0)
(0.00430537 0 0)
(0.00434381 0 0)
(0.00437738 0 0)
(0.0044052 0 0)
(0.00442745 0 0)
(0.00444718 0 0)
(0.00446371 0 0)
(0.0044765 0 0)
(0.00448812 0 0)
(0.00449776 0 0)
(0.00450417 0 0)
(0.00451004 0 0)
(0.00451478 0 0)
(0.00451909 0 0)
(0.00452223 0 0)
(0.00452213 0 0)
(0.00452304 0 0)
(0.0045233 0 0)
(0.00452321 0 0)
(0.00452457 0 0)
(0.00452553 0 0)
(0.00452459 0 0)
(0.0045232 0 0)
(0.00452468 0 0)
(0.00452564 0 0)
(0.00452461 0 0)
(0.0045243 0 0)
(0.00452586 0 0)
(0.0045265 0 0)
(0.00452582 0 0)
)
;

boundaryField
{
    inlet
    {
        type            fixedValue;
        value           uniform (0 0 0);
    }
    outlet
    {
        type            zeroGradient;
    }
    yzfaces
    {
        type            empty;
    }
}


// ************************************************************************* //
