/*--------------------------------*- C++ -*----------------------------------*\
| =========                 |                                                 |
| \\      /  F ield         | foam-extend: Open Source CFD                    |
|  \\    /   O peration     | Version:     5.0                                |
|   \\  /    A nd           | Web:         http://www.foam-extend.org         |
|    \\/     M anipulation  |                                                 |
\*---------------------------------------------------------------------------*/
FoamFile
{
    version     2.0;
    format      ascii;
    class       volScalarField;
    location    "10000";
    object      alpha.gas;
}
// * * * * * * * * * * * * * * * * * * * * * * * * * * * * * * * * * * * * * //

dimensions      [0 0 0 0 0 0 0];

internalField   nonuniform List<scalar> 
1000
(
0
0
0
0
0
0
0
0
0
0
0
0
0
0
0
0
0
0
0
0
0
0
0
0
0
3.02421e-20
4.91614e-12
1.62401e-07
0.000240996
0.00960922
0.0356395
0.0559288
0.0746398
0.0833151
0.0764677
0.0999687
0.103232
0.101311
0.0718271
0.0864458
0.0830634
0.0794784
0.0899192
0.10065
0.0971149
0.0934074
0.104464
0.0755416
0.0814023
0.113103
0.119704
0.0948568
0.122523
0.107861
0.081818
0.0991429
0.089066
0.129316
0.13658
0.138281
0.128331
0.123937
0.125358
0.132835
0.091636
0.148024
0.131133
0.126325
0.102197
0.0967646
0.13678
0.0988359
0.133061
0.148039
0.156658
0.16554
0.139769
0.162636
0.136096
0.152166
0.161391
0.141184
0.112784
0.167134
0.153968
0.155927
0.157943
0.160019
0.162142
0.180743
0.1834
0.203084
0.172049
0.13969
0.185685
0.170732
0.218984
0.1862
0.199108
0.174471
0
0
0
0
0
0
0
0
0
0
0
0
0
0
0
0
0
0
0
0
0
0
0
0
2.41413e-18
5.19553e-09
5.32548e-05
0.00481033
0.0381315
0.0727706
0.104848
0.0930656
0.0818906
0.110032
0.101942
0.12534
0.110688
0.111931
0.113062
0.108411
0.0920743
0.104325
0.140171
0.123836
0.130831
0.101975
0.126838
0.0974252
0.122557
0.117319
0.124406
0.106558
0.10727
0.152451
0.140973
0.103354
0.0974964
0.13076
0.151506
0.159442
0.107241
0.121411
0.156215
0.143852
0.103572
0.166707
0.105139
0.162192
0.120927
0.157544
0.108328
0.123536
0.10975
0.125159
0.111207
0.179044
0.18077
0.16733
0.168879
0.162724
0.148587
0.118323
0.174768
0.128399
0.13749
0.154943
0.197565
0.199953
0.143433
0.161845
0.163605
0.130614
0.166993
0.204546
0.171505
0.137199
0.184931
0.140815
0.228062
0.155714
0
0
0
0
0
0
0
0
0
0
0
0
0
0
0
0
0
0
0
0
0
0
0
0
1.80617e-10
7.72262e-06
0.00177896
0.0238291
0.0570331
0.0932638
0.0757529
0.104867
0.115058
0.107971
0.104757
0.0896022
0.113261
0.0917343
0.0983245
0.0875084
0.0940083
0.130201
0.113517
0.0963416
0.121193
0.122131
0.141506
0.124095
0.0999932
0.150847
0.0950767
0.101952
0.140967
0.142036
0.130104
0.131
0.131903
0.119528
0.12695
0.147956
0.108419
0.143093
0.123542
0.124314
0.125088
0.167815
0.155114
0.127898
0.11442
0.122275
0.159206
0.153177
0.15436
0.177784
0.142026
0.135534
0.144069
0.122232
0.161449
0.116296
0.155999
0.125823
0.189973
0.175912
0.137224
0.170752
0.139526
0.19021
0.200623
0.186067
0.162489
0.19866
0.192436
0.186047
0.215373
0.218741
0.148295
0.150064
0.227957
0.16522
0
0
0
0
0
0
0
0
0
0
0
0
0
0
0
0
0
0
0
0
0
0
0
0
2.638e-12
1.05375e-06
0.000741428
0.0123408
0.0486398
0.0873682
0.0983356
0.117116
0.0774623
0.126703
0.0869755
0.0992933
0.134312
0.113816
0.138211
0.0933303
0.135205
0.142569
0.114039
0.108883
0.121851
0.0920987
0.142024
0.124556
0.112922
0.101026
0.107952
0.121369
0.109306
0.122882
0.104148
0.150526
0.145104
0.126251
0.120376
0.107654
0.142064
0.16351
0.151108
0.159172
0.118584
0.105263
0.141101
0.113674
0.164331
0.15127
0.130645
0.175337
0.125287
0.177994
0.15715
0.135793
0.159549
0.137908
0.169815
0.140214
0.164861
0.166373
0.175924
0.185774
0.12248
0.164534
0.132954
0.142453
0.160664
0.136689
0.15516
0.148051
0.167135
0.213551
0.189708
0.174078
0.148613
0.178684
0.152938
0.174702
0
0
0
0
0
0
0
0
0
0
0
0
0
0
0
0
0
0
0
0
0
0
0
2.76283e-16
1.45333e-08
8.53203e-05
0.0066502
0.0452116
0.0581069
0.0976184
0.0953413
0.110681
0.115075
0.0859769
0.0926956
0.116053
0.117789
0.125012
0.120802
0.139536
0.0882034
0.118378
0.119386
0.120361
0.127378
0.0978302
0.116859
0.142437
0.137374
0.132154
0.126792
0.102145
0.147651
0.0970629
0.0975655
0.137289
0.138269
0.125995
0.113463
0.13426
0.121664
0.122415
0.157392
0.103461
0.138669
0.153589
0.140698
0.113351
0.142486
0.172203
0.159211
0.153189
0.117626
0.118332
0.156239
0.112483
0.113125
0.182029
0.122481
0.184871
0.186652
0.157076
0.142547
0.191503
0.145123
0.178792
0.172387
0.198987
0.167804
0.169537
0.179899
0.190627
0.201808
0.195753
0.153433
0.136996
0.156943
0.205747
0.171538
0.174595
0
0
0
0
0
0
0
0
0
0
0
0
0
0
0
0
0
0
0
0
0
0
0
7.20796e-10
2.13777e-05
0.00232766
0.0256813
0.0528529
0.0965202
0.075582
0.109477
0.0992704
0.112777
0.126419
0.0840824
0.101947
0.103074
0.127214
0.13445
0.0886057
0.118904
0.107902
0.0966099
0.133674
0.116422
0.12342
0.0932467
0.0937524
0.094253
0.0947439
0.114274
0.102193
0.141261
0.135839
0.123768
0.104883
0.118617
0.125947
0.100053
0.154151
0.108044
0.149322
0.129892
0.165096
0.131747
0.153508
0.161676
0.106268
0.170895
0.15796
0.115771
0.167357
0.168727
0.140552
0.14154
0.157552
0.151238
0.144778
0.145855
0.177877
0.179522
0.165469
0.151046
0.136267
0.145368
0.130265
0.147615
0.190185
0.200631
0.194576
0.154097
0.146939
0.191919
0.159023
0.214332
0.145083
0.146635
0.222436
0.226573
0.221851
0
0
0
0
0
0
0
0
0
0
0
0
0
0
0
0
0
0
0
0
0
0
2.10751e-14
1.07175e-07
0.000199786
0.00669727
0.0388617
0.0636752
0.0646518
0.0931012
0.10945
0.0834502
0.106748
0.0983635
0.105596
0.129787
0.137612
0.127963
0.0882548
0.112585
0.0896398
0.108249
0.127214
0.146588
0.104779
0.136439
0.125015
0.151067
0.126933
0.146973
0.10304
0.0971248
0.0976132
0.150423
0.105442
0.139122
0.120076
0.161053
0.135277
0.129371
0.102792
0.123975
0.131659
0.153433
0.1054
0.127134
0.113706
0.142915
0.129518
0.144818
0.167716
0.110281
0.133055
0.156244
0.17994
0.151289
0.137197
0.184189
0.16269
0.140637
0.125955
0.134746
0.175645
0.137042
0.170577
0.172207
0.173914
0.142223
0.177184
0.162051
0.172336
0.130721
0.149474
0.204306
0.144195
0.13664
0.220909
0.168731
0.209348
0.155575
0
0
0
0
0
0
0
0
0
0
0
0
0
0
0
0
0
0
0
0
0
4.56355e-17
8.46562e-09
8.12469e-05
0.00456109
0.0264862
0.0495533
0.0699435
0.0921922
0.0893237
0.0928332
0.111369
0.119755
0.0889973
0.0844855
0.0967556
0.132357
0.134218
0.135889
0.101578
0.120396
0.0971343
0.146608
0.110996
0.142757
0.150209
0.151492
0.108202
0.153613
0.096782
0.136139
0.117484
0.150978
0.125653
0.119763
0.133821
0.161609
0.101793
0.102268
0.143842
0.137911
0.117968
0.167427
0.11249
0.16959
0.1282
0.107462
0.143979
0.159441
0.138732
0.146986
0.140606
0.156439
0.180129
0.121145
0.175168
0.115234
0.131341
0.116642
0.132955
0.18895
0.119249
0.191953
0.185829
0.138735
0.189131
0.166223
0.142649
0.126919
0.127866
0.163199
0.199557
0.175772
0.160062
0.152863
0.136378
0.211193
0.205348
0.170976
0.212387
0
0
0
0
0
0
0
0
0
0
0
0
0
0
0
0
0
0
0
0
0
6.96132e-14
1.86606e-07
0.000344908
0.0126807
0.0452483
0.0662013
0.0866748
0.12008
0.128866
0.095188
0.0855812
0.0983048
0.0996405
0.0889494
0.107678
0.13294
0.110057
0.147981
0.124678
0.150832
0.114216
0.127722
0.115768
0.10352
0.130049
0.111267
0.151308
0.099409
0.146394
0.100482
0.127771
0.135216
0.163184
0.10272
0.12373
0.165775
0.104343
0.153605
0.168625
0.155666
0.128172
0.135963
0.136695
0.14466
0.123668
0.116935
0.168815
0.140432
0.163508
0.149654
0.15057
0.151503
0.160079
0.145817
0.146711
0.178718
0.13316
0.133917
0.16638
0.183613
0.152999
0.162211
0.138968
0.16458
0.165942
0.175743
0.177392
0.12796
0.128869
0.164416
0.174759
0.150148
0.151583
0.216146
0.201177
0.139291
0.140847
0.190004
0.203097
0
0
0
0
0
0
0
0
0
0
0
0
0
0
0
0
0
0
0
0
0
4.32634e-11
5.63411e-06
0.00169122
0.0222964
0.0704773
0.0674252
0.109281
0.120178
0.133255
0.102771
0.0987738
0.11918
0.127645
0.155616
0.138569
0.106895
0.141314
0.13596
0.130274
0.138115
0.153025
0.161221
0.11303
0.106361
0.17069
0.13611
0.172698
0.166598
0.167575
0.131902
0.13971
0.162392
0.118704
0.148758
0.15683
0.135026
0.135466
0.173637
0.174535
0.114422
0.137581
0.176348
0.184961
0.139497
0.147724
0.148262
0.1723
0.133807
0.165786
0.166565
0.167357
0.168169
0.128767
0.121079
0.186126
0.187251
0.163841
0.172897
0.190431
0.125042
0.16728
0.176657
0.143938
0.144624
0.188086
0.129237
0.147116
0.182756
0.166689
0.176762
0.133699
0.152428
0.198741
0.137055
0.202509
0.186547
0.179548
0.182068
0.155938
)
;

boundaryField
{
    inlet
    {
        type            fixedValue;
        value           uniform 0.2;
    }
    outlet
    {
        type            zeroGradient;
    }
    walls
    {
        type            zeroGradient;
    }
}


// ************************************************************************* //
