/*--------------------------------*- C++ -*----------------------------------*\
| =========                 |                                                 |
| \\      /  F ield         | foam-extend: Open Source CFD                    |
|  \\    /   O peration     | Version:     5.0                                |
|   \\  /    A nd           | Web:         http://www.foam-extend.org         |
|    \\/     M anipulation  |                                                 |
\*---------------------------------------------------------------------------*/
FoamFile
{
    version     2.0;
    format      ascii;
    class       volScalarField;
    location    "10000";
    object      alpha.oil;
}
// * * * * * * * * * * * * * * * * * * * * * * * * * * * * * * * * * * * * * //

dimensions      [0 0 0 0 0 0 0];

internalField   nonuniform List<scalar> 
1000
(
0.18
0.16
0.22
0.19
0.23
0.17
0.16
0.15
0.18
0.2
0.2
0.16
0.19
0.18
0.18
0.22
0.24
0.22
0.15
0.23
0.17
0.24
0.19
0.18
0.15
0.19
0.23
0.18
0.219759
0.220391
0.17436
0.144071
0.14536
0.136685
0.113532
0.140031
0.136768
0.128689
0.0881729
0.103554
0.0969366
0.0905216
0.100081
0.10935
0.102885
0.0965926
0.105536
0.0744584
0.0785977
0.106897
0.110296
0.0851432
0.107477
0.0921391
0.068182
0.0808571
0.070934
0.100684
0.10342
0.101719
0.0916693
0.0860629
0.084642
0.0871649
0.058364
0.0919761
0.0788665
0.0736748
0.0578026
0.0532354
0.0732199
0.0511641
0.0669391
0.0719609
0.0733421
0.0744605
0.0602309
0.0673639
0.0539038
0.0578345
0.0586092
0.0488159
0.0372163
0.0528661
0.0460316
0.044073
0.0420566
0.0399813
0.0378577
0.0392572
0.0366003
0.0369165
0.0279506
0.02031
0.0243146
0.0192676
0.0210156
0.0138002
0.0108922
0.00552929
0.21
0.21
0.19
0.16
0.15
0.18
0.15
0.17
0.24
0.18
0.22
0.2
0.2
0.17
0.18
0.22
0.17
0.18
0.19
0.24
0.23
0.18
0.19
0.15
0.2
0.17
0.209947
0.20519
0.191869
0.137229
0.135152
0.0969344
0.0781094
0.0999683
0.0880576
0.10466
0.0893118
0.0880688
0.0869381
0.0815889
0.0679257
0.0756752
0.0998289
0.0861636
0.0891692
0.0680253
0.0831616
0.0625748
0.0774428
0.0726808
0.075594
0.0634424
0.0627299
0.0875488
0.0790267
0.0566464
0.0525036
0.0692402
0.0784938
0.0805577
0.0527587
0.0585889
0.0737854
0.0661485
0.0464284
0.0732925
0.0448611
0.0678083
0.0490725
0.0624563
0.0416717
0.0464644
0.0402499
0.0448411
0.038793
0.0609562
0.0592297
0.0526696
0.0511213
0.0472761
0.0414135
0.0316767
0.0452322
0.0316014
0.0325104
0.0350566
0.0424351
0.0400475
0.0265673
0.0281554
0.0263954
0.0193863
0.0230069
0.0254538
0.0184951
0.0128014
0.0150686
0.00918489
0.0119381
0.00428572
0.23
0.17
0.15
0.19
0.17
0.22
0.21
0.23
0.17
0.15
0.21
0.16
0.2
0.2
0.17
0.15
0.24
0.24
0.22
0.19
0.16
0.23
0.19
0.2
0.22
0.159992
0.188221
0.186171
0.132967
0.136736
0.0842471
0.105133
0.104942
0.092029
0.0852433
0.0703978
0.086739
0.0682657
0.0716755
0.0624916
0.0659917
0.0897989
0.0764825
0.0636584
0.0788068
0.0778689
0.088494
0.0759052
0.0600068
0.0891533
0.0549233
0.0580476
0.0790334
0.0779641
0.0698959
0.0689995
0.0680967
0.060472
0.0630499
0.0720443
0.0515811
0.066907
0.0564576
0.0556857
0.0549123
0.0721854
0.0648863
0.0521022
0.0455799
0.0477251
0.0607937
0.0568226
0.0556399
0.0622164
0.0479745
0.0444655
0.0459308
0.0377677
0.0485509
0.033704
0.0440009
0.0341772
0.0500267
0.0440876
0.0327762
0.0392479
0.0304739
0.0397902
0.039377
0.0339327
0.0275106
0.0313399
0.027564
0.0239526
0.024627
0.0212592
0.0117047
0.0099362
0.0120434
0.00478003
0.21
0.19
0.17
0.23
0.22
0.16
0.23
0.19
0.19
0.18
0.15
0.22
0.21
0.24
0.2
0.18
0.15
0.15
0.22
0.19
0.16
0.2
0.17
0.22
0.19
0.179999
0.209259
0.147659
0.16136
0.152632
0.121664
0.122884
0.0725377
0.113297
0.0730245
0.0807067
0.105688
0.0861838
0.101789
0.0666697
0.0947953
0.0974314
0.0759614
0.0711166
0.0781487
0.0579013
0.0879764
0.0754441
0.0670782
0.0589738
0.0620481
0.0686314
0.0606942
0.0671176
0.0558516
0.0794736
0.0748959
0.063749
0.059624
0.0523462
0.0679359
0.0764905
0.0688924
0.0708279
0.0514159
0.044737
0.0588992
0.046326
0.0656686
0.0587302
0.0493551
0.0646632
0.0447133
0.0620061
0.0528502
0.0442068
0.0504513
0.0420923
0.0501851
0.0397862
0.0451389
0.0436267
0.0440761
0.0442258
0.02752
0.0354656
0.0270455
0.0275467
0.0293362
0.0233107
0.0248404
0.0219486
0.0228653
0.0264493
0.020292
0.0159216
0.0113872
0.0113164
0.00706236
0.00529839
0.15
0.24
0.17
0.23
0.24
0.23
0.19
0.23
0.15
0.22
0.17
0.17
0.24
0.24
0.21
0.22
0.19
0.15
0.16
0.17
0.24
0.24
0.2
0.22
0.24
0.199915
0.22335
0.194788
0.101893
0.132382
0.104659
0.109319
0.104925
0.0740231
0.0773044
0.0939465
0.0922108
0.0949877
0.0891983
0.100464
0.0617966
0.0816216
0.0806139
0.0796394
0.0826225
0.0621698
0.0731409
0.0875625
0.0826265
0.0778456
0.0732078
0.057855
0.0823494
0.0529371
0.0524345
0.0727109
0.0717314
0.0640048
0.0565367
0.0657398
0.0583364
0.0575849
0.0726085
0.0465389
0.0613307
0.0664111
0.0593023
0.0466494
0.057514
0.0677973
0.0607886
0.0568109
0.0423736
0.0416684
0.0537613
0.0375173
0.0368749
0.0579708
0.0375188
0.0551286
0.0533485
0.0429239
0.0374528
0.0484969
0.0348769
0.0412077
0.0376126
0.0410132
0.0321965
0.0304631
0.0301008
0.0293727
0.0281916
0.0242474
0.0165674
0.013004
0.013057
0.014253
0.00846196
0.00540502
0.2
0.22
0.2
0.19
0.17
0.17
0.21
0.24
0.18
0.16
0.22
0.2
0.18
0.17
0.17
0.16
0.18
0.16
0.16
0.19
0.23
0.16
0.21
0.15
0.219979
0.147672
0.174319
0.117147
0.14348
0.084418
0.110523
0.0907296
0.097223
0.103581
0.0659176
0.0780531
0.0769263
0.0927861
0.0955503
0.0613943
0.0810964
0.0720978
0.0633901
0.0863259
0.0735781
0.0765803
0.0567533
0.0562476
0.055747
0.0552561
0.0657262
0.0578072
0.0787388
0.0741614
0.066232
0.0551169
0.0613831
0.0640528
0.049947
0.075849
0.051956
0.0706782
0.060108
0.0749036
0.0582531
0.0664918
0.0683243
0.0437315
0.069105
0.0620397
0.0442285
0.0626433
0.0612726
0.0494481
0.0484598
0.0524484
0.0487617
0.0452219
0.0441454
0.052123
0.050478
0.0445313
0.0389544
0.0337326
0.0346324
0.0297355
0.0323846
0.0398155
0.0393688
0.035424
0.0259031
0.0230609
0.0280805
0.0209773
0.0256681
0.0149167
0.0133649
0.0175637
0.0134266
0.00814925
0.18
0.15
0.16
0.22
0.19
0.21
0.23
0.23
0.15
0.19
0.17
0.24
0.21
0.22
0.23
0.23
0.18
0.24
0.17
0.22
0.17
0.2
0.19
0.2
0.1698
0.143303
0.161138
0.116325
0.0853482
0.106899
0.11055
0.0765498
0.0932516
0.0816365
0.0844041
0.100213
0.102388
0.0920374
0.0617452
0.0774149
0.0603602
0.0717507
0.082786
0.0934115
0.0652213
0.0835611
0.0749854
0.0889332
0.0730667
0.0830274
0.0569595
0.0528752
0.0523868
0.0795775
0.0545579
0.0708779
0.0599241
0.0789468
0.0647228
0.0606288
0.0472077
0.0560246
0.0583408
0.0665666
0.0446001
0.0528656
0.0462938
0.0570854
0.0504824
0.0551815
0.0622844
0.0397191
0.0469455
0.0537555
0.0600601
0.0487107
0.0428026
0.0558111
0.04731
0.0393627
0.0340446
0.0352538
0.0443548
0.0329583
0.0394232
0.037793
0.0360861
0.0277769
0.0328159
0.0279489
0.0276637
0.0192793
0.0205262
0.0256944
0.0158048
0.0133601
0.0190907
0.0112685
0.0106516
0.00442494
0.19
0.15
0.19
0.17
0.21
0.19
0.16
0.24
0.23
0.22
0.23
0.18
0.18
0.22
0.23
0.21
0.18
0.19
0.16
0.16
0.21
0.21
0.24
0.239919
0.145439
0.123514
0.100447
0.100057
0.107808
0.0906763
0.0871668
0.0986315
0.100245
0.0710027
0.0655145
0.0732444
0.097643
0.0957825
0.0941106
0.0684219
0.0796038
0.0628657
0.0933921
0.0690043
0.0872427
0.0897914
0.0885079
0.0617981
0.0863872
0.053218
0.0738615
0.0625161
0.0790222
0.0643466
0.060237
0.0661791
0.0783912
0.0482066
0.0477318
0.0661581
0.062089
0.0520317
0.0725732
0.04751
0.0704103
0.0517999
0.0425378
0.056021
0.0605585
0.0512679
0.0530139
0.0493935
0.0535611
0.0598714
0.0388547
0.054832
0.0347655
0.0386586
0.0333578
0.0370451
0.0510497
0.0307507
0.0480465
0.0441712
0.0312655
0.0408689
0.033777
0.0273505
0.0230807
0.022134
0.0268006
0.0304431
0.0242283
0.0199381
0.0171365
0.0136217
0.0188068
0.0146518
0.00902412
0.00761298
0.18
0.2
0.21
0.15
0.22
0.22
0.17
0.19
0.17
0.15
0.23
0.18
0.17
0.18
0.18
0.17
0.2
0.24
0.2
0.22
0.15
0.2
0.19
0.219655
0.207319
0.134752
0.103799
0.103325
0.11992
0.111134
0.074812
0.0644188
0.0716952
0.0703595
0.0610506
0.0723216
0.0870595
0.0699434
0.0920192
0.0753223
0.0891679
0.0657838
0.0722779
0.0642318
0.0564795
0.0699509
0.0587327
0.0786919
0.050591
0.0736056
0.0495184
0.0622289
0.0647841
0.0768156
0.0472797
0.0562697
0.0742252
0.0456571
0.0663953
0.0713754
0.064334
0.0518275
0.0540369
0.0533052
0.0553404
0.0463322
0.0430648
0.0611854
0.049568
0.0564921
0.050346
0.0494299
0.0484971
0.0499212
0.0441827
0.0432892
0.0512819
0.0368401
0.036083
0.0436195
0.046387
0.0370009
0.0377886
0.0310317
0.0354196
0.0340577
0.0342569
0.0326079
0.0220405
0.021131
0.0255838
0.0252414
0.019852
0.0184166
0.0238544
0.0188233
0.0107093
0.00915265
0.00999564
0.00690283
0.24
0.17
0.18
0.23
0.15
0.17
0.2
0.24
0.2
0.23
0.16
0.22
0.21
0.19
0.21
0.24
0.23
0.16
0.15
0.19
0.17
0.21
0.229994
0.198309
0.167704
0.159523
0.0825748
0.110719
0.0998221
0.0967446
0.0672294
0.0612262
0.0708201
0.0723554
0.0843842
0.0714313
0.0531053
0.0686865
0.0640401
0.059726
0.0618851
0.0669754
0.0687785
0.0469698
0.0436393
0.0693102
0.0538901
0.0673023
0.0634022
0.0624249
0.0480979
0.0502898
0.0576081
0.0412961
0.0512419
0.0531698
0.0449743
0.0445339
0.0563632
0.0554653
0.0355781
0.0424191
0.0536521
0.0550391
0.0405034
0.0422761
0.0417381
0.0477002
0.0361929
0.0442136
0.0434352
0.0426432
0.0418314
0.0312325
0.0289211
0.0438741
0.042749
0.0361588
0.0371028
0.0395692
0.0249576
0.0327203
0.0333427
0.0260615
0.0253761
0.0319137
0.0207627
0.0228839
0.0272442
0.0233108
0.0232381
0.0163013
0.0175724
0.0212586
0.0129453
0.0174908
0.0134533
0.0104521
0.0079316
0.00406236
)
;

boundaryField
{
    inlet
    {
        type            fixedValue;
        value           uniform 0;
    }
    outlet
    {
        type            zeroGradient;
    }
    walls
    {
        type            zeroGradient;
    }
}


// ************************************************************************* //
