/*--------------------------------*- C++ -*----------------------------------*\
| =========                 |                                                 |
| \\      /  F ield         | foam-extend: Open Source CFD                    |
|  \\    /   O peration     | Version:     5.0                                |
|   \\  /    A nd           | Web:         http://www.foam-extend.org         |
|    \\/     M anipulation  |                                                 |
\*---------------------------------------------------------------------------*/
FoamFile
{
    version     2.0;
    format      ascii;
    class       volScalarField;
    location    "10000";
    object      p;
}
// * * * * * * * * * * * * * * * * * * * * * * * * * * * * * * * * * * * * * //

dimensions      [1 -1 -2 0 0 0 0];

internalField   nonuniform List<scalar> 
1000
(
0.101067
0.103151
0.105208
0.107248
0.109277
0.111298
0.113314
0.115325
0.117334
0.119341
0.121346
0.123351
0.125355
0.12736
0.129366
0.131372
0.133381
0.135391
0.137406
0.139425
0.141449
0.143482
0.145525
0.147581
0.149654
0.151754
0.153901
0.156141
0.158518
0.161025
0.163821
0.166629
0.169313
0.171893
0.174395
0.176846
0.179252
0.181623
0.183963
0.18628
0.188573
0.190846
0.193098
0.19533
0.197541
0.199733
0.201907
0.204061
0.2062
0.208323
0.210428
0.212516
0.214588
0.216642
0.218679
0.2207
0.222705
0.224695
0.226668
0.228622
0.230558
0.232477
0.234378
0.236262
0.238127
0.239978
0.241808
0.24362
0.245414
0.247191
0.248951
0.250692
0.252416
0.254122
0.255809
0.257475
0.25912
0.260745
0.262348
0.263931
0.265492
0.267032
0.268551
0.270051
0.271528
0.272984
0.274417
0.275825
0.277209
0.278569
0.279903
0.281212
0.282491
0.283743
0.28497
0.286165
0.287333
0.288465
0.289566
0.290625
0.101038
0.1031
0.105147
0.107181
0.109207
0.111225
0.113239
0.115249
0.117257
0.119263
0.121268
0.123273
0.125277
0.127281
0.129286
0.131292
0.1333
0.13531
0.137323
0.13934
0.141363
0.143394
0.145433
0.147484
0.149549
0.151629
0.153729
0.155934
0.158525
0.161309
0.164059
0.166743
0.169358
0.171909
0.174397
0.17684
0.179242
0.18161
0.18395
0.186265
0.188558
0.19083
0.193083
0.195313
0.197524
0.199715
0.201889
0.204044
0.206183
0.208305
0.210409
0.212497
0.214569
0.216625
0.218662
0.220682
0.222687
0.224677
0.22665
0.228604
0.230539
0.232459
0.234362
0.236245
0.23811
0.239962
0.241791
0.243605
0.245399
0.247177
0.248936
0.250678
0.252401
0.254106
0.255791
0.257459
0.259105
0.26073
0.262334
0.263917
0.265478
0.267018
0.26854
0.270038
0.271515
0.272971
0.274406
0.275815
0.277198
0.278557
0.279891
0.281199
0.282482
0.283737
0.284962
0.286156
0.287322
0.288455
0.28956
0.290617
0.101023
0.103064
0.105097
0.107123
0.109143
0.111157
0.113168
0.115176
0.117182
0.119187
0.121191
0.123195
0.125198
0.127201
0.129205
0.13121
0.133216
0.135224
0.137235
0.13925
0.14127
0.143296
0.14533
0.147375
0.149429
0.151486
0.15355
0.155902
0.158688
0.161499
0.164205
0.166849
0.169423
0.171942
0.174412
0.176844
0.179242
0.181607
0.183945
0.186257
0.188549
0.190821
0.19307
0.195299
0.19751
0.199701
0.201876
0.20403
0.206167
0.20829
0.210392
0.21248
0.214553
0.216608
0.218646
0.220667
0.222672
0.22466
0.226631
0.228586
0.230522
0.232443
0.234344
0.236228
0.238095
0.239946
0.241777
0.243589
0.245385
0.247163
0.248924
0.250666
0.252389
0.254094
0.255778
0.257443
0.259088
0.260713
0.262319
0.263901
0.265465
0.267006
0.268529
0.270027
0.271502
0.272958
0.27439
0.275801
0.277186
0.278545
0.279879
0.281189
0.282472
0.283728
0.284954
0.286149
0.287312
0.288447
0.289552
0.290611
0.101013
0.103036
0.105056
0.107072
0.109084
0.111093
0.1131
0.115105
0.117109
0.119112
0.121114
0.123117
0.125119
0.127121
0.129124
0.131127
0.133131
0.135137
0.137144
0.139155
0.141169
0.143189
0.145217
0.147255
0.149306
0.151374
0.153484
0.155911
0.158759
0.161619
0.164325
0.166937
0.169476
0.171978
0.174431
0.176855
0.179249
0.181609
0.183944
0.186253
0.188543
0.190812
0.193059
0.195287
0.197497
0.199687
0.201862
0.204016
0.206153
0.208273
0.210376
0.212464
0.214535
0.21659
0.218628
0.220651
0.222656
0.224643
0.226613
0.228567
0.230505
0.232427
0.234329
0.236213
0.238078
0.239928
0.24176
0.243573
0.245372
0.24715
0.24891
0.250653
0.252374
0.254079
0.255763
0.257427
0.259073
0.260699
0.262305
0.263889
0.265453
0.266995
0.268517
0.270016
0.27149
0.272946
0.274377
0.275787
0.277172
0.278531
0.279866
0.281176
0.282461
0.283718
0.284943
0.286138
0.287303
0.28844
0.289542
0.290605
0.101004
0.103012
0.105018
0.107023
0.109028
0.111031
0.113033
0.115035
0.117036
0.119037
0.121038
0.123039
0.12504
0.127041
0.129041
0.131043
0.133044
0.135047
0.13705
0.139056
0.141063
0.143076
0.145094
0.147123
0.149166
0.151233
0.153424
0.156091
0.158964
0.161752
0.164417
0.167001
0.169525
0.172003
0.174448
0.176865
0.179251
0.181609
0.18394
0.186248
0.188533
0.1908
0.193047
0.195275
0.197484
0.199673
0.201846
0.204002
0.206139
0.208258
0.210361
0.212447
0.21452
0.216573
0.21861
0.220633
0.222638
0.224625
0.226595
0.22855
0.230487
0.232408
0.234311
0.236195
0.238062
0.239912
0.241744
0.243557
0.245356
0.247136
0.248896
0.250637
0.252359
0.254062
0.255747
0.257411
0.259056
0.260684
0.262288
0.263876
0.26544
0.266981
0.268501
0.270001
0.271476
0.272932
0.274365
0.275775
0.27716
0.278519
0.279854
0.281165
0.28245
0.283705
0.28493
0.286125
0.287294
0.288435
0.289537
0.290601
0.100996
0.102988
0.104982
0.106977
0.108972
0.110969
0.112967
0.114965
0.116964
0.118963
0.120962
0.122961
0.12496
0.12696
0.128959
0.130958
0.132957
0.134956
0.136955
0.138954
0.140953
0.142955
0.144961
0.146975
0.149003
0.151092
0.153522
0.156342
0.159162
0.161868
0.1645
0.167055
0.169564
0.172032
0.174464
0.176873
0.179254
0.181608
0.183936
0.186239
0.188524
0.190789
0.193035
0.195264
0.197471
0.199661
0.201831
0.203985
0.206122
0.208241
0.210344
0.21243
0.214503
0.216557
0.218593
0.220614
0.222619
0.224607
0.226577
0.228532
0.230468
0.23239
0.234293
0.236178
0.238045
0.239895
0.241727
0.243541
0.245341
0.24712
0.248879
0.250622
0.252345
0.254048
0.255732
0.257397
0.259042
0.260668
0.262274
0.26386
0.265425
0.266966
0.268487
0.269985
0.271462
0.272917
0.27435
0.27576
0.277146
0.278506
0.279839
0.281149
0.282435
0.283691
0.284919
0.286114
0.287285
0.288428
0.289533
0.290598
0.100987
0.102964
0.104944
0.106928
0.108916
0.110907
0.1129
0.114895
0.116891
0.118888
0.120886
0.122883
0.124881
0.126879
0.128877
0.130874
0.13287
0.134865
0.136859
0.138851
0.140841
0.14283
0.14482
0.146816
0.148842
0.151053
0.1537
0.156545
0.159302
0.161974
0.164569
0.1671
0.169596
0.172052
0.17448
0.176884
0.17926
0.181609
0.183931
0.186234
0.188516
0.19078
0.193026
0.195252
0.197459
0.199649
0.20182
0.203974
0.206109
0.208228
0.210328
0.212414
0.214485
0.216541
0.218577
0.220599
0.222603
0.224591
0.226561
0.228515
0.230451
0.232372
0.234275
0.236161
0.238027
0.239877
0.241709
0.243525
0.245324
0.247104
0.248864
0.250605
0.252328
0.254033
0.255718
0.257382
0.259027
0.260654
0.262259
0.263844
0.265408
0.26695
0.268473
0.269971
0.271449
0.272905
0.274336
0.275744
0.277129
0.278489
0.279825
0.281135
0.28242
0.283679
0.284905
0.286104
0.287279
0.288418
0.289524
0.290587
0.100977
0.102936
0.104903
0.106877
0.108857
0.110843
0.112832
0.114824
0.116818
0.118813
0.120809
0.122805
0.124802
0.126799
0.128795
0.13079
0.132784
0.134776
0.136765
0.13875
0.140731
0.142705
0.144672
0.14663
0.14868
0.151172
0.153945
0.156727
0.159434
0.162055
0.164617
0.167135
0.169618
0.172064
0.174486
0.176886
0.17926
0.181607
0.18393
0.186228
0.18851
0.190771
0.193016
0.195239
0.197446
0.199636
0.201807
0.20396
0.206096
0.208212
0.210314
0.2124
0.214471
0.216524
0.21856
0.220582
0.222587
0.224573
0.226544
0.228499
0.230436
0.232355
0.234259
0.236143
0.238011
0.23986
0.241692
0.243509
0.245308
0.247088
0.248849
0.25059
0.252314
0.254019
0.255702
0.257368
0.259012
0.260637
0.262242
0.263828
0.265394
0.266936
0.26846
0.269959
0.271435
0.272892
0.274322
0.275729
0.277112
0.278473
0.279811
0.281124
0.282408
0.283665
0.284895
0.286095
0.287269
0.288409
0.289513
0.290581
0.100962
0.1029
0.104853
0.106819
0.108793
0.110775
0.112761
0.114751
0.116743
0.118737
0.120732
0.122727
0.124723
0.126719
0.128714
0.130708
0.132699
0.134689
0.136674
0.138654
0.140627
0.142588
0.144534
0.14647
0.148604
0.151307
0.154112
0.156864
0.159537
0.162126
0.164654
0.167155
0.16963
0.172075
0.174493
0.176888
0.179258
0.181602
0.183925
0.186224
0.188505
0.190763
0.193005
0.195226
0.197432
0.199623
0.201793
0.203948
0.206082
0.2082
0.210299
0.212386
0.214456
0.21651
0.218544
0.220566
0.222572
0.224557
0.226531
0.228486
0.230421
0.23234
0.234243
0.236128
0.237995
0.239844
0.241677
0.243495
0.245293
0.247073
0.248834
0.250576
0.252299
0.254003
0.255687
0.257354
0.259
0.260624
0.262229
0.263816
0.265381
0.266923
0.268445
0.269943
0.271422
0.272878
0.274309
0.275716
0.277099
0.27846
0.279798
0.28111
0.282395
0.283655
0.284888
0.286089
0.287258
0.288396
0.289503
0.29057
0.100933
0.102849
0.104792
0.106752
0.108723
0.110702
0.112686
0.114675
0.116666
0.118659
0.120654
0.122649
0.124644
0.12664
0.128634
0.130627
0.132618
0.134606
0.136589
0.138566
0.140533
0.142485
0.144413
0.146331
0.148593
0.151397
0.154188
0.156937
0.159587
0.162162
0.164676
0.167168
0.169641
0.172085
0.174504
0.176891
0.179253
0.181599
0.18392
0.186219
0.188498
0.190759
0.192999
0.195216
0.197421
0.199614
0.201785
0.20394
0.206075
0.208192
0.21029
0.212375
0.214445
0.216496
0.218534
0.220555
0.222559
0.224546
0.22652
0.228474
0.230407
0.232328
0.234233
0.236118
0.237983
0.239833
0.241666
0.243483
0.24528
0.247062
0.248823
0.250565
0.252287
0.253989
0.255674
0.257343
0.25899
0.260615
0.262221
0.263806
0.265368
0.266912
0.268434
0.269932
0.27141
0.272867
0.274296
0.275705
0.277091
0.278451
0.279789
0.281098
0.282385
0.283647
0.284877
0.286082
0.287253
0.288391
0.289495
0.290558
)
;

boundaryField
{
    inlet
    {
        type            fluxPressure;
        gradient        nonuniform List<scalar> 10(0.01 0.01 0.01 0.01 0.01 0.01 0.01 0.01 0.01 0.01);
        value           nonuniform List<scalar> 10(0.291125 0.291117 0.291111 0.291105 0.291101 0.291098 0.291087 0.291081 0.29107 0.291058);
    }
    outlet
    {
        type            fixedValue;
        value           uniform 0.1;
    }
    walls
    {
        type            fluxPressure;
        gradient        uniform 0;
        value           nonuniform List<scalar> 
2200
(
0.101067
0.103151
0.105208
0.107248
0.109277
0.111298
0.113314
0.115325
0.117334
0.119341
0.121346
0.123351
0.125355
0.12736
0.129366
0.131372
0.133381
0.135391
0.137406
0.139425
0.141449
0.143482
0.145525
0.147581
0.149654
0.151754
0.153901
0.156141
0.158518
0.161025
0.163821
0.166629
0.169313
0.171893
0.174395
0.176846
0.179252
0.181623
0.183963
0.18628
0.188573
0.190846
0.193098
0.19533
0.197541
0.199733
0.201907
0.204061
0.2062
0.208323
0.210428
0.212516
0.214588
0.216642
0.218679
0.2207
0.222705
0.224695
0.226668
0.228622
0.230558
0.232477
0.234378
0.236262
0.238127
0.239978
0.241808
0.24362
0.245414
0.247191
0.248951
0.250692
0.252416
0.254122
0.255809
0.257475
0.25912
0.260745
0.262348
0.263931
0.265492
0.267032
0.268551
0.270051
0.271528
0.272984
0.274417
0.275825
0.277209
0.278569
0.279903
0.281212
0.282491
0.283743
0.28497
0.286165
0.287333
0.288465
0.289566
0.290625
0.101038
0.1031
0.105147
0.107181
0.109207
0.111225
0.113239
0.115249
0.117257
0.119263
0.121268
0.123273
0.125277
0.127281
0.129286
0.131292
0.1333
0.13531
0.137323
0.13934
0.141363
0.143394
0.145433
0.147484
0.149549
0.151629
0.153729
0.155934
0.158525
0.161309
0.164059
0.166743
0.169358
0.171909
0.174397
0.17684
0.179242
0.18161
0.18395
0.186265
0.188558
0.19083
0.193083
0.195313
0.197524
0.199715
0.201889
0.204044
0.206183
0.208305
0.210409
0.212497
0.214569
0.216625
0.218662
0.220682
0.222687
0.224677
0.22665
0.228604
0.230539
0.232459
0.234362
0.236245
0.23811
0.239962
0.241791
0.243605
0.245399
0.247177
0.248936
0.250678
0.252401
0.254106
0.255791
0.257459
0.259105
0.26073
0.262334
0.263917
0.265478
0.267018
0.26854
0.270038
0.271515
0.272971
0.274406
0.275815
0.277198
0.278557
0.279891
0.281199
0.282482
0.283737
0.284962
0.286156
0.287322
0.288455
0.28956
0.290617
0.101023
0.103064
0.105097
0.107123
0.109143
0.111157
0.113168
0.115176
0.117182
0.119187
0.121191
0.123195
0.125198
0.127201
0.129205
0.13121
0.133216
0.135224
0.137235
0.13925
0.14127
0.143296
0.14533
0.147375
0.149429
0.151486
0.15355
0.155902
0.158688
0.161499
0.164205
0.166849
0.169423
0.171942
0.174412
0.176844
0.179242
0.181607
0.183945
0.186257
0.188549
0.190821
0.19307
0.195299
0.19751
0.199701
0.201876
0.20403
0.206167
0.20829
0.210392
0.21248
0.214553
0.216608
0.218646
0.220667
0.222672
0.22466
0.226631
0.228586
0.230522
0.232443
0.234344
0.236228
0.238095
0.239946
0.241777
0.243589
0.245385
0.247163
0.248924
0.250666
0.252389
0.254094
0.255778
0.257443
0.259088
0.260713
0.262319
0.263901
0.265465
0.267006
0.268529
0.270027
0.271502
0.272958
0.27439
0.275801
0.277186
0.278545
0.279879
0.281189
0.282472
0.283728
0.284954
0.286149
0.287312
0.288447
0.289552
0.290611
0.101013
0.103036
0.105056
0.107072
0.109084
0.111093
0.1131
0.115105
0.117109
0.119112
0.121114
0.123117
0.125119
0.127121
0.129124
0.131127
0.133131
0.135137
0.137144
0.139155
0.141169
0.143189
0.145217
0.147255
0.149306
0.151374
0.153484
0.155911
0.158759
0.161619
0.164325
0.166937
0.169476
0.171978
0.174431
0.176855
0.179249
0.181609
0.183944
0.186253
0.188543
0.190812
0.193059
0.195287
0.197497
0.199687
0.201862
0.204016
0.206153
0.208273
0.210376
0.212464
0.214535
0.21659
0.218628
0.220651
0.222656
0.224643
0.226613
0.228567
0.230505
0.232427
0.234329
0.236213
0.238078
0.239928
0.24176
0.243573
0.245372
0.24715
0.24891
0.250653
0.252374
0.254079
0.255763
0.257427
0.259073
0.260699
0.262305
0.263889
0.265453
0.266995
0.268517
0.270016
0.27149
0.272946
0.274377
0.275787
0.277172
0.278531
0.279866
0.281176
0.282461
0.283718
0.284943
0.286138
0.287303
0.28844
0.289542
0.290605
0.101004
0.103012
0.105018
0.107023
0.109028
0.111031
0.113033
0.115035
0.117036
0.119037
0.121038
0.123039
0.12504
0.127041
0.129041
0.131043
0.133044
0.135047
0.13705
0.139056
0.141063
0.143076
0.145094
0.147123
0.149166
0.151233
0.153424
0.156091
0.158964
0.161752
0.164417
0.167001
0.169525
0.172003
0.174448
0.176865
0.179251
0.181609
0.18394
0.186248
0.188533
0.1908
0.193047
0.195275
0.197484
0.199673
0.201846
0.204002
0.206139
0.208258
0.210361
0.212447
0.21452
0.216573
0.21861
0.220633
0.222638
0.224625
0.226595
0.22855
0.230487
0.232408
0.234311
0.236195
0.238062
0.239912
0.241744
0.243557
0.245356
0.247136
0.248896
0.250637
0.252359
0.254062
0.255747
0.257411
0.259056
0.260684
0.262288
0.263876
0.26544
0.266981
0.268501
0.270001
0.271476
0.272932
0.274365
0.275775
0.27716
0.278519
0.279854
0.281165
0.28245
0.283705
0.28493
0.286125
0.287294
0.288435
0.289537
0.290601
0.100996
0.102988
0.104982
0.106977
0.108972
0.110969
0.112967
0.114965
0.116964
0.118963
0.120962
0.122961
0.12496
0.12696
0.128959
0.130958
0.132957
0.134956
0.136955
0.138954
0.140953
0.142955
0.144961
0.146975
0.149003
0.151092
0.153522
0.156342
0.159162
0.161868
0.1645
0.167055
0.169564
0.172032
0.174464
0.176873
0.179254
0.181608
0.183936
0.186239
0.188524
0.190789
0.193035
0.195264
0.197471
0.199661
0.201831
0.203985
0.206122
0.208241
0.210344
0.21243
0.214503
0.216557
0.218593
0.220614
0.222619
0.224607
0.226577
0.228532
0.230468
0.23239
0.234293
0.236178
0.238045
0.239895
0.241727
0.243541
0.245341
0.24712
0.248879
0.250622
0.252345
0.254048
0.255732
0.257397
0.259042
0.260668
0.262274
0.26386
0.265425
0.266966
0.268487
0.269985
0.271462
0.272917
0.27435
0.27576
0.277146
0.278506
0.279839
0.281149
0.282435
0.283691
0.284919
0.286114
0.287285
0.288428
0.289533
0.290598
0.100987
0.102964
0.104944
0.106928
0.108916
0.110907
0.1129
0.114895
0.116891
0.118888
0.120886
0.122883
0.124881
0.126879
0.128877
0.130874
0.13287
0.134865
0.136859
0.138851
0.140841
0.14283
0.14482
0.146816
0.148842
0.151053
0.1537
0.156545
0.159302
0.161974
0.164569
0.1671
0.169596
0.172052
0.17448
0.176884
0.17926
0.181609
0.183931
0.186234
0.188516
0.19078
0.193026
0.195252
0.197459
0.199649
0.20182
0.203974
0.206109
0.208228
0.210328
0.212414
0.214485
0.216541
0.218577
0.220599
0.222603
0.224591
0.226561
0.228515
0.230451
0.232372
0.234275
0.236161
0.238027
0.239877
0.241709
0.243525
0.245324
0.247104
0.248864
0.250605
0.252328
0.254033
0.255718
0.257382
0.259027
0.260654
0.262259
0.263844
0.265408
0.26695
0.268473
0.269971
0.271449
0.272905
0.274336
0.275744
0.277129
0.278489
0.279825
0.281135
0.28242
0.283679
0.284905
0.286104
0.287279
0.288418
0.289524
0.290587
0.100977
0.102936
0.104903
0.106877
0.108857
0.110843
0.112832
0.114824
0.116818
0.118813
0.120809
0.122805
0.124802
0.126799
0.128795
0.13079
0.132784
0.134776
0.136765
0.13875
0.140731
0.142705
0.144672
0.14663
0.14868
0.151172
0.153945
0.156727
0.159434
0.162055
0.164617
0.167135
0.169618
0.172064
0.174486
0.176886
0.17926
0.181607
0.18393
0.186228
0.18851
0.190771
0.193016
0.195239
0.197446
0.199636
0.201807
0.20396
0.206096
0.208212
0.210314
0.2124
0.214471
0.216524
0.21856
0.220582
0.222587
0.224573
0.226544
0.228499
0.230436
0.232355
0.234259
0.236143
0.238011
0.23986
0.241692
0.243509
0.245308
0.247088
0.248849
0.25059
0.252314
0.254019
0.255702
0.257368
0.259012
0.260637
0.262242
0.263828
0.265394
0.266936
0.26846
0.269959
0.271435
0.272892
0.274322
0.275729
0.277112
0.278473
0.279811
0.281124
0.282408
0.283665
0.284895
0.286095
0.287269
0.288409
0.289513
0.290581
0.100962
0.1029
0.104853
0.106819
0.108793
0.110775
0.112761
0.114751
0.116743
0.118737
0.120732
0.122727
0.124723
0.126719
0.128714
0.130708
0.132699
0.134689
0.136674
0.138654
0.140627
0.142588
0.144534
0.14647
0.148604
0.151307
0.154112
0.156864
0.159537
0.162126
0.164654
0.167155
0.16963
0.172075
0.174493
0.176888
0.179258
0.181602
0.183925
0.186224
0.188505
0.190763
0.193005
0.195226
0.197432
0.199623
0.201793
0.203948
0.206082
0.2082
0.210299
0.212386
0.214456
0.21651
0.218544
0.220566
0.222572
0.224557
0.226531
0.228486
0.230421
0.23234
0.234243
0.236128
0.237995
0.239844
0.241677
0.243495
0.245293
0.247073
0.248834
0.250576
0.252299
0.254003
0.255687
0.257354
0.259
0.260624
0.262229
0.263816
0.265381
0.266923
0.268445
0.269943
0.271422
0.272878
0.274309
0.275716
0.277099
0.27846
0.279798
0.28111
0.282395
0.283655
0.284888
0.286089
0.287258
0.288396
0.289503
0.29057
0.100933
0.102849
0.104792
0.106752
0.108723
0.110702
0.112686
0.114675
0.116666
0.118659
0.120654
0.122649
0.124644
0.12664
0.128634
0.130627
0.132618
0.134606
0.136589
0.138566
0.140533
0.142485
0.144413
0.146331
0.148593
0.151397
0.154188
0.156937
0.159587
0.162162
0.164676
0.167168
0.169641
0.172085
0.174504
0.176891
0.179253
0.181599
0.18392
0.186219
0.188498
0.190759
0.192999
0.195216
0.197421
0.199614
0.201785
0.20394
0.206075
0.208192
0.21029
0.212375
0.214445
0.216496
0.218534
0.220555
0.222559
0.224546
0.22652
0.228474
0.230407
0.232328
0.234233
0.236118
0.237983
0.239833
0.241666
0.243483
0.24528
0.247062
0.248823
0.250565
0.252287
0.253989
0.255674
0.257343
0.25899
0.260615
0.262221
0.263806
0.265368
0.266912
0.268434
0.269932
0.27141
0.272867
0.274296
0.275705
0.277091
0.278451
0.279789
0.281098
0.282385
0.283647
0.284877
0.286082
0.287253
0.288391
0.289495
0.290558
0.101067
0.103151
0.105208
0.107248
0.109277
0.111298
0.113314
0.115325
0.117334
0.119341
0.121346
0.123351
0.125355
0.12736
0.129366
0.131372
0.133381
0.135391
0.137406
0.139425
0.141449
0.143482
0.145525
0.147581
0.149654
0.151754
0.153901
0.156141
0.158518
0.161025
0.163821
0.166629
0.169313
0.171893
0.174395
0.176846
0.179252
0.181623
0.183963
0.18628
0.188573
0.190846
0.193098
0.19533
0.197541
0.199733
0.201907
0.204061
0.2062
0.208323
0.210428
0.212516
0.214588
0.216642
0.218679
0.2207
0.222705
0.224695
0.226668
0.228622
0.230558
0.232477
0.234378
0.236262
0.238127
0.239978
0.241808
0.24362
0.245414
0.247191
0.248951
0.250692
0.252416
0.254122
0.255809
0.257475
0.25912
0.260745
0.262348
0.263931
0.265492
0.267032
0.268551
0.270051
0.271528
0.272984
0.274417
0.275825
0.277209
0.278569
0.279903
0.281212
0.282491
0.283743
0.28497
0.286165
0.287333
0.288465
0.289566
0.290625
0.101038
0.1031
0.105147
0.107181
0.109207
0.111225
0.113239
0.115249
0.117257
0.119263
0.121268
0.123273
0.125277
0.127281
0.129286
0.131292
0.1333
0.13531
0.137323
0.13934
0.141363
0.143394
0.145433
0.147484
0.149549
0.151629
0.153729
0.155934
0.158525
0.161309
0.164059
0.166743
0.169358
0.171909
0.174397
0.17684
0.179242
0.18161
0.18395
0.186265
0.188558
0.19083
0.193083
0.195313
0.197524
0.199715
0.201889
0.204044
0.206183
0.208305
0.210409
0.212497
0.214569
0.216625
0.218662
0.220682
0.222687
0.224677
0.22665
0.228604
0.230539
0.232459
0.234362
0.236245
0.23811
0.239962
0.241791
0.243605
0.245399
0.247177
0.248936
0.250678
0.252401
0.254106
0.255791
0.257459
0.259105
0.26073
0.262334
0.263917
0.265478
0.267018
0.26854
0.270038
0.271515
0.272971
0.274406
0.275815
0.277198
0.278557
0.279891
0.281199
0.282482
0.283737
0.284962
0.286156
0.287322
0.288455
0.28956
0.290617
0.101023
0.103064
0.105097
0.107123
0.109143
0.111157
0.113168
0.115176
0.117182
0.119187
0.121191
0.123195
0.125198
0.127201
0.129205
0.13121
0.133216
0.135224
0.137235
0.13925
0.14127
0.143296
0.14533
0.147375
0.149429
0.151486
0.15355
0.155902
0.158688
0.161499
0.164205
0.166849
0.169423
0.171942
0.174412
0.176844
0.179242
0.181607
0.183945
0.186257
0.188549
0.190821
0.19307
0.195299
0.19751
0.199701
0.201876
0.20403
0.206167
0.20829
0.210392
0.21248
0.214553
0.216608
0.218646
0.220667
0.222672
0.22466
0.226631
0.228586
0.230522
0.232443
0.234344
0.236228
0.238095
0.239946
0.241777
0.243589
0.245385
0.247163
0.248924
0.250666
0.252389
0.254094
0.255778
0.257443
0.259088
0.260713
0.262319
0.263901
0.265465
0.267006
0.268529
0.270027
0.271502
0.272958
0.27439
0.275801
0.277186
0.278545
0.279879
0.281189
0.282472
0.283728
0.284954
0.286149
0.287312
0.288447
0.289552
0.290611
0.101013
0.103036
0.105056
0.107072
0.109084
0.111093
0.1131
0.115105
0.117109
0.119112
0.121114
0.123117
0.125119
0.127121
0.129124
0.131127
0.133131
0.135137
0.137144
0.139155
0.141169
0.143189
0.145217
0.147255
0.149306
0.151374
0.153484
0.155911
0.158759
0.161619
0.164325
0.166937
0.169476
0.171978
0.174431
0.176855
0.179249
0.181609
0.183944
0.186253
0.188543
0.190812
0.193059
0.195287
0.197497
0.199687
0.201862
0.204016
0.206153
0.208273
0.210376
0.212464
0.214535
0.21659
0.218628
0.220651
0.222656
0.224643
0.226613
0.228567
0.230505
0.232427
0.234329
0.236213
0.238078
0.239928
0.24176
0.243573
0.245372
0.24715
0.24891
0.250653
0.252374
0.254079
0.255763
0.257427
0.259073
0.260699
0.262305
0.263889
0.265453
0.266995
0.268517
0.270016
0.27149
0.272946
0.274377
0.275787
0.277172
0.278531
0.279866
0.281176
0.282461
0.283718
0.284943
0.286138
0.287303
0.28844
0.289542
0.290605
0.101004
0.103012
0.105018
0.107023
0.109028
0.111031
0.113033
0.115035
0.117036
0.119037
0.121038
0.123039
0.12504
0.127041
0.129041
0.131043
0.133044
0.135047
0.13705
0.139056
0.141063
0.143076
0.145094
0.147123
0.149166
0.151233
0.153424
0.156091
0.158964
0.161752
0.164417
0.167001
0.169525
0.172003
0.174448
0.176865
0.179251
0.181609
0.18394
0.186248
0.188533
0.1908
0.193047
0.195275
0.197484
0.199673
0.201846
0.204002
0.206139
0.208258
0.210361
0.212447
0.21452
0.216573
0.21861
0.220633
0.222638
0.224625
0.226595
0.22855
0.230487
0.232408
0.234311
0.236195
0.238062
0.239912
0.241744
0.243557
0.245356
0.247136
0.248896
0.250637
0.252359
0.254062
0.255747
0.257411
0.259056
0.260684
0.262288
0.263876
0.26544
0.266981
0.268501
0.270001
0.271476
0.272932
0.274365
0.275775
0.27716
0.278519
0.279854
0.281165
0.28245
0.283705
0.28493
0.286125
0.287294
0.288435
0.289537
0.290601
0.100996
0.102988
0.104982
0.106977
0.108972
0.110969
0.112967
0.114965
0.116964
0.118963
0.120962
0.122961
0.12496
0.12696
0.128959
0.130958
0.132957
0.134956
0.136955
0.138954
0.140953
0.142955
0.144961
0.146975
0.149003
0.151092
0.153522
0.156342
0.159162
0.161868
0.1645
0.167055
0.169564
0.172032
0.174464
0.176873
0.179254
0.181608
0.183936
0.186239
0.188524
0.190789
0.193035
0.195264
0.197471
0.199661
0.201831
0.203985
0.206122
0.208241
0.210344
0.21243
0.214503
0.216557
0.218593
0.220614
0.222619
0.224607
0.226577
0.228532
0.230468
0.23239
0.234293
0.236178
0.238045
0.239895
0.241727
0.243541
0.245341
0.24712
0.248879
0.250622
0.252345
0.254048
0.255732
0.257397
0.259042
0.260668
0.262274
0.26386
0.265425
0.266966
0.268487
0.269985
0.271462
0.272917
0.27435
0.27576
0.277146
0.278506
0.279839
0.281149
0.282435
0.283691
0.284919
0.286114
0.287285
0.288428
0.289533
0.290598
0.100987
0.102964
0.104944
0.106928
0.108916
0.110907
0.1129
0.114895
0.116891
0.118888
0.120886
0.122883
0.124881
0.126879
0.128877
0.130874
0.13287
0.134865
0.136859
0.138851
0.140841
0.14283
0.14482
0.146816
0.148842
0.151053
0.1537
0.156545
0.159302
0.161974
0.164569
0.1671
0.169596
0.172052
0.17448
0.176884
0.17926
0.181609
0.183931
0.186234
0.188516
0.19078
0.193026
0.195252
0.197459
0.199649
0.20182
0.203974
0.206109
0.208228
0.210328
0.212414
0.214485
0.216541
0.218577
0.220599
0.222603
0.224591
0.226561
0.228515
0.230451
0.232372
0.234275
0.236161
0.238027
0.239877
0.241709
0.243525
0.245324
0.247104
0.248864
0.250605
0.252328
0.254033
0.255718
0.257382
0.259027
0.260654
0.262259
0.263844
0.265408
0.26695
0.268473
0.269971
0.271449
0.272905
0.274336
0.275744
0.277129
0.278489
0.279825
0.281135
0.28242
0.283679
0.284905
0.286104
0.287279
0.288418
0.289524
0.290587
0.100977
0.102936
0.104903
0.106877
0.108857
0.110843
0.112832
0.114824
0.116818
0.118813
0.120809
0.122805
0.124802
0.126799
0.128795
0.13079
0.132784
0.134776
0.136765
0.13875
0.140731
0.142705
0.144672
0.14663
0.14868
0.151172
0.153945
0.156727
0.159434
0.162055
0.164617
0.167135
0.169618
0.172064
0.174486
0.176886
0.17926
0.181607
0.18393
0.186228
0.18851
0.190771
0.193016
0.195239
0.197446
0.199636
0.201807
0.20396
0.206096
0.208212
0.210314
0.2124
0.214471
0.216524
0.21856
0.220582
0.222587
0.224573
0.226544
0.228499
0.230436
0.232355
0.234259
0.236143
0.238011
0.23986
0.241692
0.243509
0.245308
0.247088
0.248849
0.25059
0.252314
0.254019
0.255702
0.257368
0.259012
0.260637
0.262242
0.263828
0.265394
0.266936
0.26846
0.269959
0.271435
0.272892
0.274322
0.275729
0.277112
0.278473
0.279811
0.281124
0.282408
0.283665
0.284895
0.286095
0.287269
0.288409
0.289513
0.290581
0.100962
0.1029
0.104853
0.106819
0.108793
0.110775
0.112761
0.114751
0.116743
0.118737
0.120732
0.122727
0.124723
0.126719
0.128714
0.130708
0.132699
0.134689
0.136674
0.138654
0.140627
0.142588
0.144534
0.14647
0.148604
0.151307
0.154112
0.156864
0.159537
0.162126
0.164654
0.167155
0.16963
0.172075
0.174493
0.176888
0.179258
0.181602
0.183925
0.186224
0.188505
0.190763
0.193005
0.195226
0.197432
0.199623
0.201793
0.203948
0.206082
0.2082
0.210299
0.212386
0.214456
0.21651
0.218544
0.220566
0.222572
0.224557
0.226531
0.228486
0.230421
0.23234
0.234243
0.236128
0.237995
0.239844
0.241677
0.243495
0.245293
0.247073
0.248834
0.250576
0.252299
0.254003
0.255687
0.257354
0.259
0.260624
0.262229
0.263816
0.265381
0.266923
0.268445
0.269943
0.271422
0.272878
0.274309
0.275716
0.277099
0.27846
0.279798
0.28111
0.282395
0.283655
0.284888
0.286089
0.287258
0.288396
0.289503
0.29057
0.100933
0.102849
0.104792
0.106752
0.108723
0.110702
0.112686
0.114675
0.116666
0.118659
0.120654
0.122649
0.124644
0.12664
0.128634
0.130627
0.132618
0.134606
0.136589
0.138566
0.140533
0.142485
0.144413
0.146331
0.148593
0.151397
0.154188
0.156937
0.159587
0.162162
0.164676
0.167168
0.169641
0.172085
0.174504
0.176891
0.179253
0.181599
0.18392
0.186219
0.188498
0.190759
0.192999
0.195216
0.197421
0.199614
0.201785
0.20394
0.206075
0.208192
0.21029
0.212375
0.214445
0.216496
0.218534
0.220555
0.222559
0.224546
0.22652
0.228474
0.230407
0.232328
0.234233
0.236118
0.237983
0.239833
0.241666
0.243483
0.24528
0.247062
0.248823
0.250565
0.252287
0.253989
0.255674
0.257343
0.25899
0.260615
0.262221
0.263806
0.265368
0.266912
0.268434
0.269932
0.27141
0.272867
0.274296
0.275705
0.277091
0.278451
0.279789
0.281098
0.282385
0.283647
0.284877
0.286082
0.287253
0.288391
0.289495
0.290558
0.101067
0.103151
0.105208
0.107248
0.109277
0.111298
0.113314
0.115325
0.117334
0.119341
0.121346
0.123351
0.125355
0.12736
0.129366
0.131372
0.133381
0.135391
0.137406
0.139425
0.141449
0.143482
0.145525
0.147581
0.149654
0.151754
0.153901
0.156141
0.158518
0.161025
0.163821
0.166629
0.169313
0.171893
0.174395
0.176846
0.179252
0.181623
0.183963
0.18628
0.188573
0.190846
0.193098
0.19533
0.197541
0.199733
0.201907
0.204061
0.2062
0.208323
0.210428
0.212516
0.214588
0.216642
0.218679
0.2207
0.222705
0.224695
0.226668
0.228622
0.230558
0.232477
0.234378
0.236262
0.238127
0.239978
0.241808
0.24362
0.245414
0.247191
0.248951
0.250692
0.252416
0.254122
0.255809
0.257475
0.25912
0.260745
0.262348
0.263931
0.265492
0.267032
0.268551
0.270051
0.271528
0.272984
0.274417
0.275825
0.277209
0.278569
0.279903
0.281212
0.282491
0.283743
0.28497
0.286165
0.287333
0.288465
0.289566
0.290625
0.100933
0.102849
0.104792
0.106752
0.108723
0.110702
0.112686
0.114675
0.116666
0.118659
0.120654
0.122649
0.124644
0.12664
0.128634
0.130627
0.132618
0.134606
0.136589
0.138566
0.140533
0.142485
0.144413
0.146331
0.148593
0.151397
0.154188
0.156937
0.159587
0.162162
0.164676
0.167168
0.169641
0.172085
0.174504
0.176891
0.179253
0.181599
0.18392
0.186219
0.188498
0.190759
0.192999
0.195216
0.197421
0.199614
0.201785
0.20394
0.206075
0.208192
0.21029
0.212375
0.214445
0.216496
0.218534
0.220555
0.222559
0.224546
0.22652
0.228474
0.230407
0.232328
0.234233
0.236118
0.237983
0.239833
0.241666
0.243483
0.24528
0.247062
0.248823
0.250565
0.252287
0.253989
0.255674
0.257343
0.25899
0.260615
0.262221
0.263806
0.265368
0.266912
0.268434
0.269932
0.27141
0.272867
0.274296
0.275705
0.277091
0.278451
0.279789
0.281098
0.282385
0.283647
0.284877
0.286082
0.287253
0.288391
0.289495
0.290558
)
;
    }
}


// ************************************************************************* //
