/*--------------------------------*- C++ -*----------------------------------*\
| =========                 |                                                 |
| \\      /  F ield         | foam-extend: Open Source CFD                    |
|  \\    /   O peration     | Version:     5.0                                |
|   \\  /    A nd           | Web:         http://www.foam-extend.org         |
|    \\/     M anipulation  |                                                 |
\*---------------------------------------------------------------------------*/
FoamFile
{
    version     2.0;
    format      ascii;
    class       surfaceScalarField;
    location    "10000";
    object      phi;
}
// * * * * * * * * * * * * * * * * * * * * * * * * * * * * * * * * * * * * * //

dimensions      [0 3 -1 0 0 0 0];

internalField   nonuniform List<scalar> 
1890
(
-1.04216e-05
-2.47666e-07
-1.02853e-05
-1.36315e-07
-1.02006e-05
-8.47141e-08
-1.0144e-05
-5.65634e-08
-1.01048e-05
-3.92544e-08
-1.0077e-05
-2.77478e-08
-1.00573e-05
-1.97107e-08
-1.00434e-05
-1.3901e-08
-1.00338e-05
-9.57317e-09
-1.00276e-05
-6.23397e-09
-1.00241e-05
-3.53037e-09
-1.00229e-05
-1.19052e-09
-1.00239e-05
1.0114e-09
-1.00272e-05
3.27855e-09
-1.0033e-05
5.80836e-09
-1.00418e-05
8.80472e-09
-1.00543e-05
1.24858e-08
-1.00714e-05
1.70868e-08
-1.00942e-05
2.28592e-08
-1.01243e-05
3.00734e-08
-1.01634e-05
3.90589e-08
-1.02137e-05
5.03873e-08
-1.02793e-05
6.55086e-08
-1.0368e-05
8.87109e-08
-1.05006e-05
1.3266e-07
-1.0733e-05
2.32392e-07
-1.11998e-05
4.6675e-07
-1.18575e-05
6.57764e-07
-1.15566e-05
-3.0091e-07
-1.04415e-05
-1.11508e-06
-9.48053e-06
-9.61004e-07
-8.94951e-06
-5.31023e-07
-8.67863e-06
-2.70874e-07
-8.52057e-06
-1.58061e-07
-8.42367e-06
-9.69031e-08
-8.35793e-06
-6.57408e-08
-8.31e-06
-4.79236e-08
-8.27138e-06
-3.8629e-08
-8.23666e-06
-3.47119e-08
-8.20996e-06
-2.67007e-08
-8.18883e-06
-2.11289e-08
-8.16884e-06
-1.99934e-08
-8.15083e-06
-1.80116e-08
-8.13931e-06
-1.15186e-08
-8.12986e-06
-9.44571e-09
-8.12474e-06
-5.1236e-09
-8.11977e-06
-4.97198e-09
-8.11749e-06
-2.27886e-09
-8.11704e-06
-4.51857e-10
-8.1222e-06
5.16596e-09
-8.13169e-06
9.48859e-09
-8.14282e-06
1.11252e-08
-8.15546e-06
1.26452e-08
-8.1629e-06
7.44331e-09
-8.17003e-06
7.12556e-09
-8.18355e-06
1.35228e-08
-8.20019e-06
1.66412e-08
-8.22074e-06
2.05449e-08
-8.24266e-06
2.1925e-08
-8.26586e-06
2.32003e-08
-8.29466e-06
2.87977e-08
-8.32141e-06
2.67523e-08
-8.34555e-06
2.41323e-08
-8.37215e-06
2.66071e-08
-8.39976e-06
2.76072e-08
-8.42734e-06
2.7578e-08
-8.4601e-06
3.27601e-08
-8.4874e-06
2.73036e-08
-8.51445e-06
2.70437e-08
-8.53731e-06
2.28644e-08
-8.56941e-06
3.21025e-08
-8.59897e-06
2.95607e-08
-8.63731e-06
3.8336e-08
-8.68075e-06
4.34438e-08
-8.73166e-06
5.09115e-08
-8.7782e-06
4.6534e-08
-8.82116e-06
4.29618e-08
-8.86858e-06
4.74179e-08
-8.91162e-06
4.30441e-08
-8.95883e-06
4.72063e-08
-9.0086e-06
4.97695e-08
-9.05734e-06
4.87378e-08
-9.09213e-06
3.479e-08
-9.14453e-06
5.24021e-08
-9.20044e-06
5.59124e-08
-9.2532e-06
5.27612e-08
-9.29903e-06
4.58237e-08
-9.34213e-06
4.31016e-08
-9.39636e-06
5.42303e-08
-9.45676e-06
6.04046e-08
-9.52192e-06
6.51593e-08
-9.59418e-06
7.22566e-08
-9.64433e-06
5.0155e-08
-9.67028e-06
2.5944e-08
-9.71313e-06
4.28493e-08
-9.76982e-06
5.66927e-08
-9.84149e-06
7.16678e-08
-9.91137e-06
6.98809e-08
-9.94724e-06
3.58741e-08
5.27584e-08
-1.03103e-05
-3.17213e-07
-1.02337e-05
-2.1288e-07
-1.01724e-05
-1.45978e-07
-1.01267e-05
-1.02285e-07
-1.00933e-05
-7.27064e-08
-1.0069e-05
-5.2026e-08
-1.00515e-05
-3.71939e-08
-1.00391e-05
-2.63203e-08
-1.00305e-05
-1.81577e-08
-1.00249e-05
-1.18323e-08
-1.00217e-05
-6.69699e-09
-1.00207e-05
-2.24307e-09
-1.00216e-05
1.95758e-09
-1.00246e-05
6.29446e-09
-1.003e-05
1.11502e-08
-1.00381e-05
1.69248e-08
-1.00497e-05
2.40516e-08
-1.00656e-05
3.30023e-08
-1.0087e-05
4.42767e-08
-1.01153e-05
5.83755e-08
-1.0152e-05
7.57751e-08
-1.01986e-05
9.69816e-08
-1.0256e-05
1.22936e-07
-1.0324e-05
1.56675e-07
-1.04009e-05
2.09538e-07
-1.04935e-05
3.25035e-07
-1.05385e-05
5.11759e-07
-9.7256e-06
-1.55172e-07
-9.28657e-06
-7.39949e-07
-9.6112e-06
-7.9045e-07
-9.93259e-06
-6.39614e-07
-9.96618e-06
-4.97427e-07
-9.89361e-06
-3.43446e-07
-9.83313e-06
-2.18539e-07
-9.78361e-06
-1.4643e-07
-9.7509e-06
-9.84433e-08
-9.715e-06
-8.38247e-08
-9.68964e-06
-6.39931e-08
-9.67139e-06
-5.296e-08
-9.65778e-06
-4.0306e-08
-9.64267e-06
-3.6237e-08
-9.63061e-06
-3.20619e-08
-9.6324e-06
-1.62114e-08
-9.63594e-06
-7.98121e-09
-9.63874e-06
-6.65136e-09
-9.63709e-06
-6.77012e-09
-9.63626e-06
-5.80208e-09
-9.63536e-06
-3.17473e-09
-9.64277e-06
6.95449e-09
-9.64542e-06
7.81887e-09
-9.65463e-06
1.86961e-08
-9.66163e-06
1.81283e-08
-9.66482e-06
1.5835e-08
-9.6789e-06
2.1523e-08
-9.69391e-06
2.21395e-08
-9.69728e-06
1.68847e-08
-9.69942e-06
1.87835e-08
-9.71004e-06
3.11648e-08
-9.72703e-06
3.892e-08
-9.74336e-06
3.95299e-08
-9.75085e-06
3.62813e-08
-9.75684e-06
3.27419e-08
-9.77278e-06
4.00772e-08
-9.78643e-06
4.02525e-08
-9.79519e-06
3.63672e-08
-9.80716e-06
3.95501e-08
-9.80869e-06
3.42948e-08
-9.8251e-06
4.37144e-08
-9.83601e-06
3.79456e-08
-9.85128e-06
3.8135e-08
-9.84668e-06
2.75087e-08
-9.84465e-06
2.75274e-08
-9.83689e-06
3.05779e-08
-9.82695e-06
3.35004e-08
-9.82116e-06
4.51228e-08
-9.83863e-06
6.4009e-08
-9.86309e-06
6.74195e-08
-9.88505e-06
6.93724e-08
-9.9039e-06
6.18976e-08
-9.92214e-06
6.54495e-08
-9.92659e-06
5.4221e-08
-9.92718e-06
4.93235e-08
-9.93752e-06
4.51324e-08
-9.92977e-06
4.46461e-08
-9.9334e-06
5.95423e-08
-9.94411e-06
6.34713e-08
-9.97957e-06
8.12834e-08
-1.00097e-05
7.31915e-08
-1.00138e-05
5.84064e-08
-1.00194e-05
6.59563e-08
-1.00242e-05
6.99386e-08
-1.00048e-05
5.29391e-08
-1.00068e-05
5.20892e-08
-1.00345e-05
5.36623e-08
-1.00315e-05
3.98579e-08
-1.00077e-05
3.28539e-08
-1.00059e-05
6.99001e-08
-9.99202e-06
5.60036e-08
-1.00121e-05
5.59586e-08
4.06492e-08
-1.02059e-05
-3.40721e-07
-1.01668e-05
-2.52013e-07
-1.01287e-05
-1.84033e-07
-1.00971e-05
-1.33893e-07
-1.00726e-05
-9.726e-08
-1.00542e-05
-7.04561e-08
-1.00406e-05
-5.07185e-08
-1.00309e-05
-3.60285e-08
-1.00242e-05
-2.4905e-08
-1.00198e-05
-1.62406e-08
-1.00173e-05
-9.18219e-09
-1.00165e-05
-3.04238e-09
-1.00173e-05
2.76754e-09
-1.00198e-05
8.79151e-09
-1.00242e-05
1.55732e-08
-1.0031e-05
2.36926e-08
-1.00407e-05
3.37934e-08
-1.00543e-05
4.65943e-08
-1.00729e-05
6.28697e-08
-1.00979e-05
8.33768e-08
-1.01308e-05
1.08684e-07
-1.01727e-05
1.38827e-07
-1.02223e-05
1.72581e-07
-1.02711e-05
2.05514e-07
-1.02844e-05
2.22827e-07
-1.01284e-05
1.69028e-07
-9.54788e-06
-6.87977e-08
-9.33116e-06
-3.71884e-07
-9.58923e-06
-4.81883e-07
-9.8158e-06
-5.63879e-07
-9.90706e-06
-5.48357e-07
-9.96887e-06
-4.35615e-07
-1.00097e-05
-3.02655e-07
-9.9953e-06
-2.32895e-07
-9.97937e-06
-1.62359e-07
-9.9481e-06
-1.29718e-07
-9.92372e-06
-1.08199e-07
-9.89894e-06
-8.87751e-08
-9.87691e-06
-7.49949e-08
-9.86152e-06
-5.56886e-08
-9.85061e-06
-4.71498e-08
-9.8497e-06
-3.29663e-08
-9.84444e-06
-2.14739e-08
-9.83605e-06
-1.63698e-08
-9.83392e-06
-8.78086e-09
-9.84065e-06
-4.33774e-11
-9.84596e-06
-4.91782e-10
-9.84971e-06
5.75276e-10
-9.8474e-06
4.64593e-09
-9.85609e-06
1.65076e-08
-9.85122e-06
1.3832e-08
-9.84904e-06
1.59478e-08
-9.85799e-06
2.47778e-08
-9.86617e-06
2.97114e-08
-9.87497e-06
3.09364e-08
-9.88145e-06
2.33616e-08
-9.88761e-06
2.49415e-08
-9.88833e-06
3.18868e-08
-9.88927e-06
3.98627e-08
-9.89443e-06
4.46867e-08
-9.89277e-06
3.46281e-08
-9.89398e-06
3.39444e-08
-9.88733e-06
3.34309e-08
-9.88184e-06
3.47621e-08
-9.88674e-06
4.12653e-08
-9.89871e-06
5.15173e-08
-9.91027e-06
4.58566e-08
-9.91039e-06
4.38354e-08
-9.90214e-06
2.96983e-08
-9.89413e-06
3.01245e-08
-9.9048e-06
3.818e-08
-9.91321e-06
3.594e-08
-9.92965e-06
4.70178e-08
-9.94438e-06
4.82294e-08
-9.94853e-06
4.92653e-08
-9.94289e-06
5.83753e-08
-9.93385e-06
5.83756e-08
-9.91941e-06
5.49364e-08
-9.91181e-06
5.42971e-08
-9.89271e-06
4.63478e-08
-9.88259e-06
4.40979e-08
-9.87329e-06
4.00285e-08
-9.8796e-06
5.14447e-08
-9.88393e-06
4.89764e-08
-9.88128e-06
5.68857e-08
-9.8773e-06
5.94908e-08
-9.86157e-06
6.55599e-08
-9.86359e-06
7.52032e-08
-9.88142e-06
7.62381e-08
-9.89471e-06
7.92429e-08
-9.89643e-06
7.16633e-08
-9.91982e-06
7.63291e-08
-9.93668e-06
6.89493e-08
-9.94109e-06
5.80713e-08
-9.9733e-06
7.20655e-08
-1.00173e-05
7.69061e-08
-1.00047e-05
5.7263e-08
-9.98496e-06
3.62553e-08
-1.00038e-05
7.4789e-08
3.68553e-08
-1.01172e-05
-3.4958e-07
-1.00988e-05
-2.70419e-07
-1.00786e-05
-2.04248e-07
-1.00605e-05
-1.51993e-07
-1.00458e-05
-1.11985e-07
-1.00344e-05
-8.18199e-08
-1.00259e-05
-5.91954e-08
-1.00198e-05
-4.21703e-08
-1.00155e-05
-2.91932e-08
-1.00127e-05
-1.9043e-08
-1.00111e-05
-1.07488e-08
-1.00107e-05
-3.51179e-09
-1.00113e-05
3.36344e-09
-1.0013e-05
1.05309e-08
-1.00161e-05
1.86584e-08
-1.00209e-05
2.84789e-08
-1.00279e-05
4.08353e-08
-1.0038e-05
5.67116e-08
-1.00524e-05
7.7231e-08
-1.00726e-05
1.03578e-07
-1.01007e-05
1.36758e-07
-1.01389e-05
1.77063e-07
-1.01894e-05
2.23045e-07
-1.02538e-05
2.69973e-07
-1.03391e-05
3.0805e-07
-1.04794e-05
3.09399e-07
-1.04783e-05
-6.99611e-08
-9.93632e-06
-9.13835e-07
-9.5729e-06
-8.45294e-07
-9.54338e-06
-5.93406e-07
-9.64608e-06
-4.45654e-07
-9.73906e-06
-3.42635e-07
-9.75974e-06
-2.81978e-07
-9.80368e-06
-1.88956e-07
-9.81237e-06
-1.53663e-07
-9.81838e-06
-1.23707e-07
-9.83506e-06
-9.15262e-08
-9.8444e-06
-7.94275e-08
-9.8586e-06
-6.07951e-08
-9.85965e-06
-5.46437e-08
-9.87758e-06
-2.92219e-08
-9.88949e-06
-2.10496e-08
-9.89118e-06
-1.97882e-08
-9.8899e-06
-1.76507e-08
-9.88817e-06
-1.05071e-08
-9.88419e-06
-4.01988e-09
-9.88994e-06
5.25493e-09
-9.89219e-06
2.83068e-09
-9.89152e-06
3.97075e-09
-9.88267e-06
7.66234e-09
-9.88071e-06
1.18742e-08
-9.88434e-06
1.95772e-08
-9.87662e-06
1.70517e-08
-9.87473e-06
2.78254e-08
-9.87366e-06
2.98633e-08
-9.88276e-06
3.24579e-08
-9.89113e-06
3.33157e-08
-9.8939e-06
3.46545e-08
-9.89237e-06
3.8337e-08
-9.88388e-06
3.61989e-08
-9.89307e-06
4.3811e-08
-9.90675e-06
4.763e-08
-9.91652e-06
4.32026e-08
-9.93047e-06
4.87098e-08
-9.92958e-06
4.03729e-08
-9.91533e-06
3.72724e-08
-9.91265e-06
4.31701e-08
-9.91295e-06
4.41351e-08
-9.9255e-06
4.22521e-08
-9.93198e-06
3.66085e-08
-9.93279e-06
3.89873e-08
-9.94437e-06
4.75179e-08
-9.94857e-06
5.12162e-08
-9.96308e-06
6.27414e-08
-9.97157e-06
5.77543e-08
-9.97626e-06
6.30682e-08
-9.98576e-06
6.78778e-08
-9.98668e-06
5.58575e-08
-9.99916e-06
6.67709e-08
-1.00032e-05
5.03975e-08
-1.00123e-05
5.31822e-08
-1.00345e-05
6.22096e-08
-1.0056e-05
7.29691e-08
-1.00758e-05
6.87928e-08
-1.00829e-05
6.39475e-08
-1.00897e-05
6.63416e-08
-1.00852e-05
6.10722e-08
-1.0069e-05
5.89959e-08
-1.00613e-05
6.8484e-08
-1.00478e-05
6.57711e-08
-1.00442e-05
6.80152e-08
-1.00337e-05
6.58974e-08
-1.00309e-05
6.61172e-08
-1.00543e-05
8.14972e-08
-1.00711e-05
8.88709e-08
-1.00817e-05
8.74454e-08
-1.00802e-05
5.57738e-08
-1.00715e-05
2.75522e-08
-1.00191e-05
2.24018e-08
1.77683e-08
-1.00381e-05
-3.51959e-07
-1.00327e-05
-2.75835e-07
-1.00264e-05
-2.10545e-07
-1.00205e-05
-1.57849e-07
-1.00156e-05
-1.16865e-07
-1.00118e-05
-8.56435e-08
-1.00089e-05
-6.20729e-08
-1.00068e-05
-4.4264e-08
-1.00054e-05
-3.06545e-08
-1.00044e-05
-1.99895e-08
-1.00039e-05
-1.1258e-08
-1.00038e-05
-3.61946e-09
-1.00041e-05
3.66713e-09
-1.00049e-05
1.13101e-08
-1.00063e-05
2.00506e-08
-1.00085e-05
3.07295e-08
-1.0012e-05
4.43572e-08
-1.00175e-05
6.21857e-08
-1.00261e-05
8.57651e-08
-1.00394e-05
1.16944e-07
-1.00604e-05
1.57708e-07
-1.00929e-05
2.09622e-07
-1.01424e-05
2.72563e-07
-1.02158e-05
3.43281e-07
-1.03293e-05
4.21635e-07
-1.03469e-05
3.26965e-07
-9.72893e-06
-6.8794e-07
-9.61539e-06
-1.02738e-06
-9.64205e-06
-8.18633e-07
-9.70288e-06
-5.32571e-07
-9.73384e-06
-4.147e-07
-9.77318e-06
-3.03296e-07
-9.80857e-06
-2.46579e-07
-9.79579e-06
-2.0174e-07
-9.80008e-06
-1.4937e-07
-9.809e-06
-1.14787e-07
-9.81113e-06
-8.93932e-08
-9.81727e-06
-7.32881e-08
-9.82155e-06
-5.65198e-08
-9.83947e-06
-3.67186e-08
-9.83319e-06
-3.55072e-08
-9.83178e-06
-2.24587e-08
-9.83486e-06
-1.66993e-08
-9.83547e-06
-1.70418e-08
-9.83674e-06
-9.23975e-09
-9.83122e-06
-9.5435e-09
-9.82938e-06
3.42082e-09
-9.83831e-06
1.1756e-08
-9.84987e-06
1.55303e-08
-9.86022e-06
1.80159e-08
-9.86751e-06
1.91658e-08
-9.86889e-06
2.09568e-08
-9.87421e-06
2.23675e-08
-9.86471e-06
1.83301e-08
-9.85876e-06
2.3917e-08
-9.86156e-06
3.52499e-08
-9.86526e-06
3.70169e-08
-9.86578e-06
3.51772e-08
-9.86566e-06
3.82139e-08
-9.86629e-06
3.68297e-08
-9.86697e-06
4.4495e-08
-9.8621e-06
4.27578e-08
-9.86647e-06
4.75756e-08
-9.85532e-06
3.75597e-08
-9.86074e-06
4.57879e-08
-9.87007e-06
4.66092e-08
-9.87223e-06
4.53227e-08
-9.87422e-06
4.61247e-08
-9.87508e-06
4.31131e-08
-9.88794e-06
4.94757e-08
-9.90337e-06
5.44138e-08
-9.90511e-06
4.92575e-08
-9.89564e-06
4.17482e-08
-9.87971e-06
4.68046e-08
-9.87396e-06
5.20097e-08
-9.85641e-06
4.55139e-08
-9.83859e-06
5.00649e-08
-9.84429e-06
6.15584e-08
-9.83564e-06
5.81182e-08
-9.84828e-06
6.30396e-08
-9.8609e-06
6.58025e-08
-9.86313e-06
6.44364e-08
-9.85602e-06
6.58549e-08
-9.86575e-06
7.85302e-08
-9.87132e-06
6.951e-08
-9.8843e-06
7.93233e-08
-9.90218e-06
7.89497e-08
-9.92279e-06
7.96061e-08
-9.92665e-06
7.23427e-08
-9.93536e-06
7.44847e-08
-9.95605e-06
8.87021e-08
-9.98903e-06
9.88766e-08
-1.00179e-05
9.49625e-08
-1.00332e-05
9.67908e-08
-1.00155e-05
7.1215e-08
-9.99928e-06
7.12163e-08
-1.00023e-05
5.88088e-08
-1.00193e-05
4.45231e-08
-1.00128e-05
1.59169e-08
4.96723e-09
-9.96195e-06
-3.4958e-07
-9.96736e-06
-2.70419e-07
-9.97366e-06
-2.04247e-07
-9.97952e-06
-1.51992e-07
-9.9844e-06
-1.11983e-07
-9.98823e-06
-8.18163e-08
-9.99111e-06
-5.91889e-08
-9.99322e-06
-4.21583e-08
-9.9947e-06
-2.91712e-08
-9.99569e-06
-1.90026e-08
-9.99627e-06
-1.06744e-08
-9.99651e-06
-3.37516e-09
-9.99646e-06
3.61444e-09
-9.99614e-06
1.09918e-08
-9.9956e-06
1.95046e-08
-9.9949e-06
3.0031e-08
-9.99422e-06
4.36785e-08
-9.99394e-06
6.1909e-08
-9.99488e-06
8.66993e-08
-9.99866e-06
1.20727e-07
-1.00085e-05
1.67507e-07
-1.003e-05
2.31155e-07
-1.00717e-05
3.14303e-07
-1.01355e-05
4.07062e-07
-1.01276e-05
4.13754e-07
-9.6324e-06
-1.68267e-07
-9.41945e-06
-9.00889e-07
-9.60134e-06
-8.45486e-07
-9.80405e-06
-6.15925e-07
-9.83864e-06
-4.97976e-07
-9.89027e-06
-3.63073e-07
-9.92488e-06
-2.68685e-07
-9.95691e-06
-2.14545e-07
-9.99097e-06
-1.67676e-07
-9.99196e-06
-1.48383e-07
-9.98126e-06
-1.25491e-07
-9.96644e-06
-1.04213e-07
-9.96292e-06
-7.68086e-08
-9.96629e-06
-5.31417e-08
-9.95465e-06
-4.83597e-08
-9.95668e-06
-3.34774e-08
-9.95153e-06
-2.76062e-08
-9.9421e-06
-2.61375e-08
-9.94278e-06
-1.63601e-08
-9.94321e-06
-8.80777e-09
-9.94231e-06
-1.04428e-08
-9.92931e-06
-9.57655e-09
-9.90993e-06
-7.62041e-09
-9.89279e-06
-1.61669e-09
-9.8776e-06
2.82828e-09
-9.87312e-06
1.46835e-08
-9.87154e-06
1.93785e-08
-9.87571e-06
2.65387e-08
-9.87965e-06
2.22738e-08
-9.88329e-06
2.75548e-08
-9.87244e-06
2.43998e-08
-9.86392e-06
2.8498e-08
-9.85637e-06
2.76244e-08
-9.84713e-06
2.89758e-08
-9.84801e-06
3.77108e-08
-9.8434e-06
3.98834e-08
-9.84579e-06
4.51428e-08
-9.84151e-06
4.32996e-08
-9.85008e-06
4.61288e-08
-9.85432e-06
5.00313e-08
-9.86226e-06
5.45444e-08
-9.87379e-06
5.68515e-08
-9.87117e-06
4.35065e-08
-9.88085e-06
5.27935e-08
-9.88284e-06
5.14682e-08
-9.87254e-06
4.41165e-08
-9.88229e-06
5.90047e-08
-9.89604e-06
5.54988e-08
-9.89602e-06
4.67851e-08
-9.88996e-06
4.59508e-08
-9.8957e-06
5.12568e-08
-9.90241e-06
5.67725e-08
-9.89487e-06
5.40201e-08
-9.89681e-06
6.00511e-08
-9.90697e-06
7.32009e-08
-9.91867e-06
7.75081e-08
-9.92792e-06
7.36864e-08
-9.92177e-06
5.97034e-08
-9.90591e-06
6.2665e-08
-9.89421e-06
5.7817e-08
-9.87029e-06
5.54014e-08
-9.85756e-06
6.62149e-08
-9.86917e-06
9.12156e-08
-9.89156e-06
9.47325e-08
-9.91195e-06
9.48778e-08
-9.90409e-06
8.0842e-08
-9.89046e-06
8.52447e-08
-9.88792e-06
9.24212e-08
-9.86495e-06
7.3819e-08
-9.88297e-06
8.92386e-08
-9.87535e-06
6.35993e-08
-9.84679e-06
3.025e-08
-9.86826e-06
6.59884e-08
-9.91549e-06
6.31462e-08
8.94785e-08
-9.88278e-06
-3.40721e-07
-9.90119e-06
-2.52013e-07
-9.92141e-06
-1.84032e-07
-9.93951e-06
-1.33891e-07
-9.95423e-06
-9.72569e-08
-9.9656e-06
-7.04503e-08
-9.97408e-06
-5.07079e-08
-9.98023e-06
-3.60091e-08
-9.98453e-06
-2.48694e-08
-9.98736e-06
-1.61751e-08
-9.98897e-06
-9.06183e-09
-9.98952e-06
-2.82121e-09
-9.98908e-06
3.17395e-09
-9.98763e-06
9.53821e-09
-9.98507e-06
1.69448e-08
-9.98125e-06
2.62115e-08
-9.97599e-06
3.84167e-08
-9.96915e-06
5.50725e-08
-9.96085e-06
7.83964e-08
-9.95188e-06
1.11756e-07
-9.94481e-06
1.6044e-07
-9.94684e-06
2.33186e-07
-9.97896e-06
3.46421e-07
-1.01078e-05
5.35883e-07
-1.01328e-05
4.38778e-07
-9.59339e-06
-7.07687e-07
-9.50005e-06
-9.94225e-07
-9.58278e-06
-7.62755e-07
-9.60807e-06
-5.9063e-07
-9.69946e-06
-4.0659e-07
-9.78265e-06
-2.79884e-07
-9.82176e-06
-2.29573e-07
-9.86128e-06
-1.75028e-07
-9.8951e-06
-1.33859e-07
-9.93599e-06
-1.07486e-07
-9.975e-06
-8.64793e-08
-1.00005e-05
-7.87362e-08
-1.00083e-05
-6.89606e-08
-9.99596e-06
-6.55134e-08
-9.99683e-06
-4.74886e-08
-9.98723e-06
-4.30721e-08
-9.98767e-06
-2.71659e-08
-9.99255e-06
-2.12621e-08
-1.00042e-05
-4.67459e-09
-1.00041e-05
-8.96931e-09
-1.0008e-05
-6.51612e-09
-1.0013e-05
-4.59732e-09
-1.00262e-05
5.64887e-09
-1.00316e-05
3.73359e-09
-1.00439e-05
1.51214e-08
-1.00403e-05
1.10882e-08
-1.00341e-05
1.32228e-08
-1.00216e-05
1.39535e-08
-1.00258e-05
2.64753e-08
-1.00256e-05
2.73675e-08
-1.00307e-05
2.95103e-08
-1.0029e-05
2.68622e-08
-1.00442e-05
4.27808e-08
-1.00542e-05
3.89513e-08
-1.00493e-05
3.28612e-08
-1.00418e-05
3.23229e-08
-1.0038e-05
4.13812e-08
-1.0034e-05
3.92637e-08
-1.00374e-05
4.95417e-08
-1.00261e-05
3.87528e-08
-1.00205e-05
4.89317e-08
-1.00151e-05
5.14595e-08
-1.00178e-05
4.62257e-08
-1.00103e-05
4.5285e-08
-1.0009e-05
5.02055e-08
-1.00167e-05
5.18145e-08
-1.00043e-05
4.65809e-08
-9.99612e-06
4.73005e-08
-9.99922e-06
4.98924e-08
-1.00167e-05
6.34262e-08
-1.00186e-05
5.31453e-08
-1.00221e-05
6.03113e-08
-1.00398e-05
7.16658e-08
-1.00533e-05
7.36169e-08
-1.00465e-05
6.63688e-08
-1.00239e-05
5.48682e-08
-1.00164e-05
6.62103e-08
-1.00173e-05
6.06479e-08
-1.00114e-05
5.67028e-08
-1.00229e-05
6.93314e-08
-1.00316e-05
6.41314e-08
-1.00392e-05
7.38151e-08
-1.00321e-05
8.41342e-08
-1.00404e-05
1.03005e-07
-1.00469e-05
1.01371e-07
-1.00518e-05
8.57028e-08
-1.00298e-05
6.33207e-08
-1.00104e-05
7.29668e-08
-1.00215e-05
8.49817e-08
-9.99832e-06
6.60099e-08
-9.9929e-06
5.818e-08
-1.00289e-05
6.62063e-08
-1.00277e-05
6.48637e-08
-1.00499e-05
8.53287e-08
3.95632e-08
-9.79408e-06
-3.17213e-07
-9.83321e-06
-2.12879e-07
-9.87126e-06
-1.45977e-07
-9.90287e-06
-1.02284e-07
-9.92743e-06
-7.27033e-08
-9.94586e-06
-5.20203e-08
-9.95938e-06
-3.71833e-08
-9.96909e-06
-2.63009e-08
-9.97584e-06
-1.8122e-08
-9.98024e-06
-1.17668e-08
-9.98273e-06
-6.57659e-09
-9.98353e-06
-2.02178e-09
-9.98272e-06
2.36435e-09
-9.98022e-06
7.04223e-09
-9.9758e-06
1.25251e-08
-9.96905e-06
1.94534e-08
-9.95933e-06
2.87042e-08
-9.94583e-06
4.15679e-08
-9.92749e-06
6.00574e-08
-9.90319e-06
8.74614e-08
-9.87207e-06
1.29311e-07
-9.83361e-06
1.94728e-07
-9.78315e-06
2.95962e-07
-9.65506e-06
4.07797e-07
-9.22449e-06
8.20908e-09
-9.24512e-06
-6.87063e-07
-9.52754e-06
-7.11804e-07
-9.6829e-06
-6.07392e-07
-9.78107e-06
-4.9246e-07
-9.81783e-06
-3.69828e-07
-9.8617e-06
-2.36012e-07
-9.93221e-06
-1.59064e-07
-9.97931e-06
-1.27934e-07
-9.99343e-06
-1.19732e-07
-9.99842e-06
-1.02499e-07
-1.0005e-05
-7.99267e-08
-1.00266e-05
-5.70766e-08
-1.0051e-05
-4.45669e-08
-1.00696e-05
-4.6965e-08
-1.00738e-05
-4.32258e-08
-1.00778e-05
-3.91275e-08
-1.00774e-05
-2.75885e-08
-1.00875e-05
-1.10782e-08
-1.00922e-05
-6.63059e-12
-1.01118e-05
1.05957e-08
-1.0126e-05
7.7099e-09
-1.01407e-05
1.01206e-08
-1.01347e-05
-3.70403e-10
-1.01436e-05
1.26889e-08
-1.01337e-05
5.21398e-09
-1.01426e-05
1.9918e-08
-1.01476e-05
1.82637e-08
-1.01569e-05
2.32914e-08
-1.01539e-05
2.34374e-08
-1.01583e-05
3.17748e-08
-1.01624e-05
3.35608e-08
-1.01689e-05
3.33629e-08
-1.01602e-05
3.40906e-08
-1.0145e-05
2.38114e-08
-1.01395e-05
2.72893e-08
-1.0141e-05
3.3814e-08
-1.01382e-05
3.86049e-08
-1.01425e-05
4.35914e-08
-1.01323e-05
3.93021e-08
-1.01411e-05
4.75537e-08
-1.01398e-05
4.76323e-08
-1.01332e-05
4.486e-08
-1.01295e-05
4.25657e-08
-1.0135e-05
5.07242e-08
-1.013e-05
4.52508e-08
-1.0126e-05
4.78188e-08
-1.01268e-05
4.73871e-08
-1.01332e-05
5.37282e-08
-1.0145e-05
6.16122e-08
-1.01387e-05
5.72166e-08
-1.01418e-05
5.61598e-08
-1.0122e-05
4.05215e-08
-1.0102e-05
5.17055e-08
-1.00791e-05
5.07203e-08
-1.00615e-05
4.87278e-08
-1.0065e-05
5.83906e-08
-1.00539e-05
5.51647e-08
-1.00626e-05
6.92992e-08
-1.0082e-05
7.61373e-08
-1.00789e-05
6.61699e-08
-1.00873e-05
7.2588e-08
-1.00848e-05
7.1329e-08
-1.00664e-05
6.56787e-08
-1.00353e-05
7.18999e-08
-1.00075e-05
7.3579e-08
-9.99611e-06
7.43208e-08
-1.00139e-05
8.11484e-08
-1.00206e-05
7.96376e-08
-1.00016e-05
6.59699e-08
-9.97208e-06
3.64917e-08
-9.9408e-06
2.68989e-08
-9.95133e-06
7.67434e-08
-9.97477e-06
8.82955e-08
-9.95863e-06
6.91975e-08
8.09286e-08
-9.68974e-06
-2.47666e-07
-9.76631e-06
-1.36315e-07
-9.82757e-06
-8.47135e-08
-9.87329e-06
-5.65624e-08
-9.90674e-06
-3.92525e-08
-9.93102e-06
-2.77442e-08
-9.9485e-06
-1.97041e-08
-9.96091e-06
-1.3889e-08
-9.96948e-06
-9.55114e-09
-9.97505e-06
-6.19347e-09
-9.97817e-06
-3.45593e-09
-9.97914e-06
-1.05368e-09
-9.97804e-06
1.26299e-09
-9.97474e-06
3.74127e-09
-9.96888e-06
6.65984e-09
-9.95979e-06
1.0373e-08
-9.94647e-06
1.53787e-08
-9.92734e-06
2.24376e-08
-9.90009e-06
3.28039e-08
-9.86134e-06
4.87204e-08
-9.80665e-06
7.46164e-08
-9.73236e-06
1.20434e-07
-9.64835e-06
2.11956e-07
-9.547e-06
3.0645e-07
-9.28308e-06
-2.55715e-07
-9.4795e-06
-4.90636e-07
-9.79769e-06
-3.93618e-07
-1.00299e-05
-3.75206e-07
-1.02369e-05
-2.85419e-07
-1.03757e-05
-2.31074e-07
-1.04451e-05
-1.66618e-07
-1.04783e-05
-1.25807e-07
-1.04946e-05
-1.11684e-07
-1.0507e-05
-1.07317e-07
-1.05008e-05
-1.08716e-07
-1.05097e-05
-7.09638e-08
-1.05341e-05
-3.26862e-08
-1.05407e-05
-3.80323e-08
-1.05623e-05
-2.53551e-08
-1.05821e-05
-2.33842e-08
-1.06027e-05
-1.8544e-08
-1.06058e-05
-2.44382e-08
-1.06021e-05
-1.48054e-08
-1.06063e-05
4.1942e-09
-1.06044e-05
8.67858e-09
-1.05949e-05
-1.77787e-09
-1.05864e-05
1.6375e-09
-1.05848e-05
-2.00498e-09
-1.05661e-05
-5.97661e-09
-1.05635e-05
2.58609e-09
-1.05533e-05
9.7013e-09
-1.05504e-05
1.53595e-08
-1.05449e-05
1.78159e-08
-1.0553e-05
3.15746e-08
-1.05402e-05
1.89683e-08
-1.05282e-05
2.15385e-08
-1.05282e-05
3.34039e-08
-1.05181e-05
2.39411e-08
-1.05159e-05
2.15921e-08
-1.05167e-05
2.81074e-08
-1.05237e-05
4.08263e-08
-1.05179e-05
3.27563e-08
-1.04986e-05
2.43808e-08
-1.04817e-05
2.23882e-08
-1.04694e-05
3.51706e-08
-1.04536e-05
3.19004e-08
-1.0439e-05
3.02172e-08
-1.04322e-05
3.58281e-08
-1.04233e-05
4.18042e-08
-1.04168e-05
3.87296e-08
-1.04048e-05
3.57897e-08
-1.03935e-05
3.61587e-08
-1.03811e-05
4.1289e-08
-1.03748e-05
5.52717e-08
-1.03703e-05
5.27833e-08
-1.03504e-05
3.62485e-08
-1.0344e-05
3.41259e-08
-1.03238e-05
3.14379e-08
-1.03029e-05
2.98259e-08
-1.02913e-05
3.71199e-08
-1.02922e-05
5.92938e-08
-1.02839e-05
4.68934e-08
-1.02631e-05
4.85095e-08
-1.02413e-05
5.43762e-08
-1.02337e-05
5.85064e-08
-1.02149e-05
5.38042e-08
-1.02133e-05
6.97659e-08
-1.02107e-05
6.30679e-08
-1.0178e-05
3.91492e-08
-1.01445e-05
4.01481e-08
-1.01218e-05
5.1594e-08
-1.01106e-05
6.99608e-08
-1.00882e-05
5.71999e-08
-1.00628e-05
4.06364e-08
-1.00929e-05
6.65189e-08
-1.01068e-05
4.0816e-08
-1.00579e-05
2.78537e-08
-1.00008e-05
3.12039e-08
-9.98477e-06
5.31592e-08
9.61592e-08
-9.57839e-06
-9.71471e-06
-9.79942e-06
-9.85598e-06
-9.89523e-06
-9.92298e-06
-9.94268e-06
-9.95657e-06
-9.96612e-06
-9.97232e-06
-9.97577e-06
-9.97683e-06
-9.97556e-06
-9.97182e-06
-9.96516e-06
-9.95479e-06
-9.93941e-06
-9.91697e-06
-9.88417e-06
-9.83545e-06
-9.76083e-06
-9.6404e-06
-9.42844e-06
-9.12199e-06
-9.37771e-06
-9.86834e-06
-1.0262e-05
-1.06372e-05
-1.09226e-05
-1.11537e-05
-1.13203e-05
-1.14461e-05
-1.15578e-05
-1.16651e-05
-1.17738e-05
-1.18448e-05
-1.18775e-05
-1.19155e-05
-1.19408e-05
-1.19642e-05
-1.19828e-05
-1.20072e-05
-1.2022e-05
-1.20178e-05
-1.20091e-05
-1.20109e-05
-1.20093e-05
-1.20113e-05
-1.20173e-05
-1.20147e-05
-1.2005e-05
-1.19896e-05
-1.19718e-05
-1.19402e-05
-1.19213e-05
-1.18997e-05
-1.18663e-05
-1.18424e-05
-1.18208e-05
-1.17927e-05
-1.17518e-05
-1.17191e-05
-1.16947e-05
-1.16723e-05
-1.16371e-05
-1.16052e-05
-1.1575e-05
-1.15392e-05
-1.14974e-05
-1.14587e-05
-1.14229e-05
-1.13867e-05
-1.13454e-05
-1.12902e-05
-1.12374e-05
-1.12011e-05
-1.1167e-05
-1.11356e-05
-1.11057e-05
-1.10686e-05
-1.10093e-05
-1.09624e-05
-1.09139e-05
-1.08595e-05
-1.0801e-05
-1.07472e-05
-1.06775e-05
-1.06144e-05
-1.05752e-05
-1.05351e-05
-1.04835e-05
-1.04135e-05
-1.03563e-05
-1.03157e-05
-1.02492e-05
-1.02084e-05
-1.01805e-05
-1.01493e-05
-1.00962e-05
)
;

boundaryField
{
    inlet
    {
        type            calculated;
        value           nonuniform List<scalar> 10(-1e-05 -1e-05 -1e-05 -1e-05 -1e-05 -1e-05 -1e-05 -1e-05 -1e-05 -1e-05);
    }
    outlet
    {
        type            calculated;
        value           nonuniform List<scalar> 10(1.06693e-05 1.03798e-05 1.02294e-05 1.01261e-05 1.00404e-05 9.95957e-06 9.87393e-06 9.77057e-06 9.62019e-06 9.33073e-06);
    }
    walls
    {
        type            calculated;
        value           uniform 0;
    }
}


// ************************************************************************* //
