/*--------------------------------*- C++ -*----------------------------------*\
| =========                 |                                                 |
| \\      /  F ield         | foam-extend: Open Source CFD                    |
|  \\    /   O peration     | Version:     5.0                                |
|   \\  /    A nd           | Web:         http://www.foam-extend.org         |
|    \\/     M anipulation  |                                                 |
\*---------------------------------------------------------------------------*/
FoamFile
{
    version     2.0;
    format      ascii;
    class       surfaceScalarField;
    location    "10000";
    object      phi.oil;
}
// * * * * * * * * * * * * * * * * * * * * * * * * * * * * * * * * * * * * * //

dimensions      [0 3 -1 0 0 0 0];

internalField   nonuniform List<scalar> 
1890
(
-6.13037e-05
-1.27008e-06
-5.41332e-05
-7.36837e-07
-4.9759e-05
-4.13239e-07
-4.83049e-05
-3.2322e-07
-5.05239e-05
-2.06602e-07
-6.10729e-05
-1.58559e-07
-6.48859e-05
-1.27166e-07
-6.08692e-05
-8.68814e-08
-5.28097e-05
-4.55865e-08
-5.0138e-05
-3.28104e-08
-5.56893e-05
-1.68113e-08
-5.72736e-05
-6.61397e-09
-5.41832e-05
5.18667e-09
-5.57065e-05
1.87346e-08
-5.01649e-05
3.22687e-08
-4.366e-05
4.00215e-08
-4.37142e-05
6.09062e-08
-5.44398e-05
8.54341e-08
-5.31275e-05
1.34466e-07
-5.06215e-05
1.27972e-07
-4.95773e-05
1.95295e-07
-4.75058e-05
2.39939e-07
-5.55635e-05
3.44782e-07
-6.28361e-05
5.37642e-07
-6.17684e-05
7.58059e-07
-5.11096e-05
1.29107e-06
-5.4633e-05
2.12185e-06
-5.93233e-05
3.41533e-06
-5.23133e-05
-1.44972e-06
-4.88223e-05
-4.32026e-06
-4.57546e-05
-3.24618e-06
-4.04903e-05
-2.0855e-06
-3.53057e-05
-1.31887e-06
-3.57079e-05
-9.08908e-07
-3.29034e-05
-8.54998e-07
-2.82268e-05
-5.77748e-07
-2.79564e-05
-5.41991e-07
-3.27786e-05
-5.22402e-07
-3.58939e-05
-6.22543e-07
-3.31775e-05
-5.46773e-07
-3.43723e-05
-5.82301e-07
-3.27851e-05
-5.69726e-07
-2.88886e-05
-4.62746e-07
-2.75708e-05
-4.42786e-07
-2.83985e-05
-4.39382e-07
-2.71631e-05
-4.89206e-07
-2.94979e-05
-4.24025e-07
-3.37243e-05
-5.65742e-07
-2.70203e-05
-4.86156e-07
-2.2288e-05
-3.98572e-07
-2.38959e-05
-3.68642e-07
-2.34908e-05
-4.5157e-07
-2.18436e-05
-3.86597e-07
-2.62455e-05
-3.8012e-07
-2.73619e-05
-4.57448e-07
-2.59625e-05
-4.58052e-07
-2.22281e-05
-4.94131e-07
-1.79481e-05
-3.45591e-07
-1.71124e-05
-3.15953e-07
-1.73763e-05
-3.07353e-07
-1.81324e-05
-3.64856e-07
-1.80983e-05
-3.6731e-07
-1.72104e-05
-3.37414e-07
-1.94018e-05
-3.35162e-07
-1.8081e-05
-4.77548e-07
-1.51097e-05
-2.98663e-07
-1.61225e-05
-3.75488e-07
-1.78032e-05
-3.35907e-07
-2.01581e-05
-4.32096e-07
-1.69217e-05
-4.00041e-07
-1.62809e-05
-3.68767e-07
-1.63568e-05
-4.32929e-07
-1.31407e-05
-3.656e-07
-1.18011e-05
-3.20246e-07
-1.08546e-05
-3.13189e-07
-1.10744e-05
-2.61553e-07
-1.09237e-05
-2.89182e-07
-1.0638e-05
-2.67775e-07
-1.07451e-05
-2.98506e-07
-9.51869e-06
-2.77308e-07
-9.45993e-06
-2.73304e-07
-1.08715e-05
-3.24872e-07
-9.61725e-06
-3.22514e-07
-7.9111e-06
-2.71811e-07
-7.8443e-06
-2.74909e-07
-7.35655e-06
-2.60779e-07
-6.86192e-06
-2.3253e-07
-6.36921e-06
-2.21879e-07
-5.61582e-06
-2.33441e-07
-4.86801e-06
-1.98721e-07
-4.2103e-06
-1.86334e-07
-3.85271e-06
-1.78738e-07
-4.18024e-06
-1.89491e-07
-3.68414e-06
-1.88884e-07
-2.82044e-06
-1.48867e-07
-2.22344e-06
-1.48263e-07
-1.54848e-06
-1.00424e-07
-1.19943e-06
-1.06894e-07
-6.08087e-07
-7.79124e-08
-5.00433e-08
-4.90965e-05
-1.44188e-06
-5.11685e-05
-1.12042e-06
-5.81282e-05
-8.58694e-07
-6.53337e-05
-5.84487e-07
-6.11713e-05
-4.54415e-07
-6.10242e-05
-2.6013e-07
-6.28219e-05
-2.06633e-07
-4.89712e-05
-1.31601e-07
-4.77643e-05
-8.85741e-08
-5.01245e-05
-7.1711e-08
-4.77226e-05
-3.11488e-08
-5.01034e-05
-1.24615e-08
-5.4171e-05
9.7879e-09
-5.72837e-05
3.40241e-08
-5.01499e-05
6.37154e-08
-5.14775e-05
9.14852e-08
-5.74267e-05
1.17325e-07
-5.44086e-05
1.57154e-07
-4.69163e-05
2.15984e-07
-4.30439e-05
2.71514e-07
-4.95221e-05
3.8859e-07
-5.51277e-05
4.73081e-07
-6.03297e-05
6.47034e-07
-5.89944e-05
8.95284e-07
-5.6221e-05
9.97799e-07
-5.52368e-05
1.96995e-06
-5.07157e-05
2.57058e-06
-4.54019e-05
-7.92556e-07
-3.61216e-05
-3.64071e-06
-3.20249e-05
-3.46496e-06
-3.01011e-05
-2.8254e-06
-3.56033e-05
-2.27833e-06
-3.24621e-05
-1.77406e-06
-2.84187e-05
-1.22558e-06
-2.62463e-05
-1.08801e-06
-2.46907e-05
-9.11865e-07
-2.58917e-05
-8.48072e-07
-2.52672e-05
-8.71841e-07
-2.53304e-05
-8.12349e-07
-2.76349e-05
-8.39775e-07
-2.7973e-05
-8.77796e-07
-2.22024e-05
-6.89008e-07
-2.01859e-05
-5.96482e-07
-2.07175e-05
-6.69852e-07
-2.23198e-05
-5.87434e-07
-2.25539e-05
-6.65661e-07
-2.26128e-05
-5.53732e-07
-2.29043e-05
-6.6591e-07
-2.0683e-05
-6.34063e-07
-2.02754e-05
-5.30459e-07
-2.0909e-05
-6.17055e-07
-2.23628e-05
-6.57566e-07
-1.82074e-05
-5.60911e-07
-1.57801e-05
-4.60389e-07
-1.86606e-05
-5.00724e-07
-2.2502e-05
-5.9376e-07
-1.95924e-05
-6.01497e-07
-1.55546e-05
-5.23425e-07
-1.38446e-05
-4.58598e-07
-1.57789e-05
-4.17278e-07
-1.82659e-05
-6.03618e-07
-1.47936e-05
-4.99031e-07
-1.33554e-05
-4.57301e-07
-1.58738e-05
-4.79681e-07
-1.44207e-05
-5.72319e-07
-1.38507e-05
-3.85473e-07
-1.39935e-05
-5.03176e-07
-1.27896e-05
-4.32415e-07
-1.28508e-05
-5.44562e-07
-1.30354e-05
-4.56612e-07
-1.47608e-05
-4.93763e-07
-1.43075e-05
-4.70995e-07
-1.3944e-05
-4.84219e-07
-1.3478e-05
-4.13055e-07
-1.07871e-05
-4.69436e-07
-8.34062e-06
-3.5132e-07
-8.32065e-06
-3.37654e-07
-8.34483e-06
-3.76332e-07
-8.15175e-06
-3.37818e-07
-8.36582e-06
-3.92219e-07
-9.397e-06
-3.70177e-07
-8.36594e-06
-4.60381e-07
-7.60435e-06
-3.07288e-07
-8.42423e-06
-3.59737e-07
-7.33807e-06
-3.74435e-07
-5.78678e-06
-3.08367e-07
-4.75797e-06
-2.7964e-07
-5.06829e-06
-2.45757e-07
-5.45551e-06
-2.78075e-07
-4.71944e-06
-2.57814e-07
-4.77102e-06
-2.61123e-07
-4.43742e-06
-2.55097e-07
-3.17306e-06
-2.16372e-07
-2.63991e-06
-1.83586e-07
-2.77843e-06
-1.75597e-07
-2.37618e-06
-1.675e-07
-1.75149e-06
-1.34909e-07
-1.29439e-06
-1.41685e-07
-4.67304e-07
-7.38885e-08
-6.34723e-08
-5.10297e-05
-1.54873e-06
-6.35425e-05
-1.40007e-06
-5.95809e-05
-1.15021e-06
-5.60952e-05
-6.37585e-07
-5.16543e-05
-4.98769e-07
-4.67635e-05
-3.70822e-07
-4.56392e-05
-2.30538e-07
-5.01546e-05
-1.71564e-07
-6.26511e-05
-1.38361e-07
-5.56654e-05
-9.84281e-08
-5.41475e-05
-5.10122e-08
-5.56471e-05
-1.60125e-08
-5.00865e-05
1.35002e-08
-5.4161e-05
3.99614e-08
-6.26513e-05
8.41793e-08
-5.14409e-05
1.43591e-07
-4.18364e-05
1.733e-07
-4.37144e-05
2.38945e-07
-4.91361e-05
2.85771e-07
-5.77023e-05
4.38825e-07
-5.19529e-05
6.79278e-07
-4.84413e-05
6.45709e-07
-5.24221e-05
9.58781e-07
-4.89102e-05
9.78637e-07
-5.41297e-05
1.08696e-06
-5.81633e-05
9.9431e-07
-4.93865e-05
-3.46457e-07
-4.27479e-05
-2.22418e-06
-3.68359e-05
-3.00696e-06
-3.39459e-05
-2.77783e-06
-3.49933e-05
-2.95291e-06
-2.78801e-05
-1.92395e-06
-2.70817e-05
-1.74048e-06
-2.80485e-05
-1.2412e-06
-3.02441e-05
-1.27933e-06
-2.8711e-05
-1.19157e-06
-2.77662e-05
-8.5468e-07
-2.96983e-05
-9.71119e-07
-2.99144e-05
-8.08749e-07
-3.03453e-05
-9.9483e-07
-2.4298e-05
-7.64498e-07
-2.19151e-05
-6.11529e-07
-2.51742e-05
-7.05609e-07
-2.40984e-05
-7.7053e-07
-2.12052e-05
-6.33523e-07
-1.93499e-05
-6.97501e-07
-1.88763e-05
-5.31293e-07
-2.21167e-05
-6.04528e-07
-1.96319e-05
-6.97036e-07
-1.95641e-05
-5.63922e-07
-2.43254e-05
-7.12826e-07
-1.95169e-05
-6.42844e-07
-1.64417e-05
-5.54757e-07
-1.68297e-05
-5.18202e-07
-1.73213e-05
-5.85855e-07
-1.69514e-05
-5.02103e-07
-1.74512e-05
-5.06227e-07
-1.75782e-05
-5.56451e-07
-1.5517e-05
-5.37819e-07
-1.62739e-05
-5.12449e-07
-1.64549e-05
-5.43155e-07
-1.51656e-05
-4.41967e-07
-1.60779e-05
-4.91508e-07
-1.57054e-05
-4.70979e-07
-1.31743e-05
-5.31824e-07
-1.16201e-05
-4.57877e-07
-1.2981e-05
-4.33313e-07
-1.49162e-05
-5.33543e-07
-1.50232e-05
-4.80316e-07
-1.2391e-05
-4.82195e-07
-1.08426e-05
-4.39411e-07
-1.07541e-05
-3.89572e-07
-9.72291e-06
-4.37889e-07
-9.74147e-06
-3.42538e-07
-1.09921e-05
-4.01886e-07
-1.0639e-05
-4.26468e-07
-1.08148e-05
-3.77291e-07
-9.94255e-06
-4.37083e-07
-9.71313e-06
-3.37892e-07
-9.74103e-06
-4.36814e-07
-8.99511e-06
-3.42979e-07
-7.8586e-06
-3.71975e-07
-6.39285e-06
-2.77955e-07
-7.13267e-06
-2.75965e-07
-7.06174e-06
-3.61595e-07
-6.6005e-06
-2.7167e-07
-6.01034e-06
-3.16689e-07
-4.70899e-06
-2.42878e-07
-4.40952e-06
-2.17486e-07
-4.55091e-06
-2.32777e-07
-4.13364e-06
-2.3491e-07
-3.42009e-06
-2.00402e-07
-3.1708e-06
-1.89215e-07
-2.65822e-06
-1.6355e-07
-2.04337e-06
-1.36602e-07
-1.88726e-06
-1.23913e-07
-2.0224e-06
-1.51657e-07
-1.26623e-06
-1.19675e-07
-4.97514e-07
-6.63926e-08
-6.28477e-08
-5.05862e-05
-1.94211e-06
-5.61046e-05
-1.25776e-06
-5.0393e-05
-1.20146e-06
-4.47134e-05
-6.60841e-07
-5.28726e-05
-4.86889e-07
-5.14586e-05
-4.19589e-07
-4.77426e-05
-2.81883e-07
-5.27358e-05
-2.00811e-07
-5.41379e-05
-1.71725e-07
-6.06831e-05
-9.52151e-08
-5.41143e-05
-6.71798e-08
-4.65613e-05
-1.80092e-08
-4.44945e-05
1.49486e-08
-4.55137e-05
4.38786e-08
-5.27163e-05
9.10166e-08
-6.07326e-05
1.42395e-07
-6.68528e-05
2.40208e-07
-5.42597e-05
3.78077e-07
-4.90361e-05
4.06479e-07
-5.75577e-05
5.75431e-07
-5.61149e-05
6.83792e-07
-5.48049e-05
8.04833e-07
-5.22532e-05
1.20565e-06
-5.00187e-05
1.22715e-06
-5.5887e-05
1.43279e-06
-5.38418e-05
1.62879e-06
-5.79063e-05
-3.23398e-07
-5.44192e-05
-4.96112e-06
-3.68363e-05
-4.35563e-06
-3.01683e-05
-2.45808e-06
-2.80078e-05
-2.0584e-06
-3.03807e-05
-1.51446e-06
-2.9999e-05
-1.62592e-06
-2.74249e-05
-1.18344e-06
-3.1698e-05
-1.30843e-06
-2.49051e-05
-1.01003e-06
-2.28421e-05
-7.87596e-07
-2.23461e-05
-8.07386e-07
-2.37925e-05
-7.04513e-07
-2.40951e-05
-7.72333e-07
-1.94555e-05
-7.39339e-07
-2.07114e-05
-6.21785e-07
-2.36457e-05
-6.96147e-07
-2.26043e-05
-7.04913e-07
-2.39865e-05
-6.33712e-07
-2.18142e-05
-8.14872e-07
-1.87613e-05
-5.80296e-07
-2.08185e-05
-5.69948e-07
-2.28474e-05
-6.05282e-07
-2.31533e-05
-6.40622e-07
-2.08449e-05
-6.2579e-07
-2.04176e-05
-6.39329e-07
-2.00608e-05
-5.62437e-07
-2.01905e-05
-6.30559e-07
-1.78506e-05
-6.85653e-07
-1.50509e-05
-4.76942e-07
-1.61328e-05
-4.84025e-07
-1.7525e-05
-5.41679e-07
-1.86803e-05
-5.77032e-07
-1.68631e-05
-5.61495e-07
-1.35119e-05
-5.00055e-07
-1.28306e-05
-4.56564e-07
-1.27872e-05
-4.30985e-07
-1.39595e-05
-4.96584e-07
-1.7108e-05
-5.22413e-07
-1.53347e-05
-5.20315e-07
-1.44462e-05
-4.65254e-07
-1.30894e-05
-5.73483e-07
-1.1184e-05
-4.25226e-07
-1.22409e-05
-4.08531e-07
-1.10941e-05
-4.48185e-07
-1.08869e-05
-3.81957e-07
-1.06658e-05
-5.09215e-07
-9.2857e-06
-4.02952e-07
-1.03403e-05
-3.87737e-07
-1.00365e-05
-4.79254e-07
-9.60485e-06
-4.31068e-07
-9.05652e-06
-3.775e-07
-8.60205e-06
-3.96771e-07
-8.51113e-06
-3.68796e-07
-7.49801e-06
-3.31781e-07
-6.96333e-06
-3.46707e-07
-6.27625e-06
-3.40407e-07
-6.91551e-06
-2.87767e-07
-7.26892e-06
-4.00043e-07
-6.54356e-06
-3.03993e-07
-6.78117e-06
-3.34896e-07
-5.80494e-06
-2.8934e-07
-5.47837e-06
-2.8125e-07
-5.28072e-06
-2.91161e-07
-4.66671e-06
-2.51806e-07
-4.1517e-06
-2.35471e-07
-3.0965e-06
-1.99295e-07
-2.44711e-06
-1.57479e-07
-2.31674e-06
-1.68707e-07
-2.16112e-06
-1.73169e-07
-1.77727e-06
-1.71481e-07
-1.1673e-06
-1.21568e-07
-7.45208e-07
-1.06085e-07
-6.29707e-08
-5.14773e-05
-2.01119e-06
-4.89398e-05
-1.19928e-06
-5.01318e-05
-1.13808e-06
-4.26404e-05
-7.51661e-07
-4.26197e-05
-5.70073e-07
-4.76752e-05
-4.28218e-07
-4.76615e-05
-3.10365e-07
-5.26675e-05
-1.88357e-07
-5.4083e-05
-1.85785e-07
-5.13047e-05
-1.05208e-07
-5.88465e-05
-5.77335e-08
-4.8799e-05
-1.95647e-08
-4.16838e-05
1.74625e-08
-4.44661e-05
5.51713e-08
-4.65408e-05
1.0553e-07
-4.88221e-05
1.61734e-07
-5.88944e-05
2.39769e-07
-6.46292e-05
4.01198e-07
-6.0764e-05
5.36032e-07
-4.89728e-05
6.49691e-07
-4.19182e-05
6.71098e-07
-4.5877e-05
1.04811e-06
-4.82974e-05
1.32957e-06
-4.44163e-05
1.85558e-06
-4.69606e-05
1.83328e-06
-4.88044e-05
1.88137e-06
-4.20083e-05
-3.37674e-06
-3.92746e-05
-5.01833e-06
-3.94314e-05
-4.03202e-06
-3.078e-05
-2.49237e-06
-2.98283e-05
-1.89565e-06
-2.67891e-05
-1.50858e-06
-2.96434e-05
-1.25245e-06
-3.34044e-05
-1.22514e-06
-2.8246e-05
-1.27953e-06
-2.4718e-05
-9.49439e-07
-2.34804e-05
-8.76553e-07
-2.28353e-05
-7.36109e-07
-2.13186e-05
-6.91611e-07
-2.38999e-05
-7.21045e-07
-2.63353e-05
-8.03866e-07
-2.25014e-05
-7.0028e-07
-2.20434e-05
-7.21237e-07
-2.10703e-05
-6.18527e-07
-2.28267e-05
-6.26682e-07
-2.38005e-05
-6.94978e-07
-1.94412e-05
-6.95498e-07
-1.77098e-05
-6.02477e-07
-1.81491e-05
-6.1184e-07
-1.86523e-05
-6.24416e-07
-2.08145e-05
-5.89866e-07
-1.89485e-05
-6.94052e-07
-1.88993e-05
-4.89168e-07
-2.36275e-05
-6.16309e-07
-1.93792e-05
-6.33651e-07
-1.61954e-05
-5.54885e-07
-1.66121e-05
-5.23156e-07
-1.80769e-05
-5.3873e-07
-1.72733e-05
-6.29559e-07
-1.6397e-05
-4.69261e-07
-1.69588e-05
-5.73041e-07
-1.45706e-05
-4.88144e-07
-1.5216e-05
-4.5266e-07
-1.62795e-05
-5.00756e-07
-1.31986e-05
-4.79661e-07
-1.281e-05
-4.21039e-07
-1.45495e-05
-4.28038e-07
-1.42816e-05
-5.83729e-07
-1.13365e-05
-4.1203e-07
-1.04485e-05
-3.80079e-07
-1.08368e-05
-4.48549e-07
-1.21701e-05
-3.91749e-07
-1.37479e-05
-4.43135e-07
-1.1573e-05
-4.75592e-07
-1.14e-05
-4.02733e-07
-1.33676e-05
-4.49214e-07
-1.00131e-05
-4.45067e-07
-9.24008e-06
-3.41792e-07
-9.03841e-06
-4.19064e-07
-7.12552e-06
-3.00446e-07
-7.37347e-06
-2.91016e-07
-8.18838e-06
-3.25929e-07
-7.12567e-06
-3.49001e-07
-6.64261e-06
-2.95234e-07
-6.71356e-06
-3.39759e-07
-5.83104e-06
-3.04854e-07
-5.23886e-06
-2.9327e-07
-4.89957e-06
-2.37041e-07
-5.0336e-06
-2.46279e-07
-4.52929e-06
-2.35373e-07
-3.92786e-06
-2.35376e-07
-3.35362e-06
-2.21389e-07
-2.90883e-06
-1.87274e-07
-2.8495e-06
-1.9615e-07
-3.03801e-06
-1.87471e-07
-2.64655e-06
-2.1515e-07
-1.7534e-06
-1.86877e-07
-1.07206e-06
-1.22551e-07
-6.91666e-07
-1.0837e-07
-7.1012e-08
-4.74378e-05
-1.83989e-06
-4.74636e-05
-1.46172e-06
-5.1147e-05
-1.13471e-06
-5.54418e-05
-7.41426e-07
-5.87318e-05
-6.22126e-07
-5.25696e-05
-4.30612e-07
-4.44049e-05
-2.6904e-07
-4.75867e-05
-1.79397e-07
-5.87923e-05
-1.76795e-07
-5.26089e-05
-1.08586e-07
-4.76013e-05
-5.47405e-08
-5.26132e-05
-1.53416e-08
-5.71226e-05
1.85356e-08
-5.88008e-05
5.63684e-08
-6.05794e-05
9.75229e-08
-5.87935e-05
1.54005e-07
-5.87895e-05
2.42658e-07
-6.24621e-05
3.09545e-07
-5.71136e-05
5.25451e-07
-4.76127e-05
5.88912e-07
-5.13254e-05
8.37537e-07
-5.42162e-05
1.28419e-06
-5.59541e-05
1.57151e-06
-5.47897e-05
2.32607e-06
-5.50664e-05
2.12302e-06
-5.73411e-05
-1.15695e-06
-4.59348e-05
-4.96571e-06
-3.8675e-05
-5.04165e-06
-3.30508e-05
-3.08512e-06
-3.40745e-05
-2.75688e-06
-2.89568e-05
-1.68828e-06
-2.86121e-05
-1.6883e-06
-2.49225e-05
-1.2543e-06
-2.77114e-05
-1.09591e-06
-3.14616e-05
-1.2393e-06
-2.80586e-05
-9.51059e-07
-2.4677e-05
-8.60267e-07
-2.13308e-05
-7.46487e-07
-2.45856e-05
-7.93779e-07
-2.63655e-05
-8.72578e-07
-2.37218e-05
-7.9947e-07
-2.60207e-05
-7.60724e-07
-2.29162e-05
-7.32471e-07
-2.07014e-05
-5.64681e-07
-2.13788e-05
-6.96956e-07
-2.33058e-05
-5.98709e-07
-2.68044e-05
-7.11079e-07
-2.63464e-05
-6.28725e-07
-2.59078e-05
-6.77571e-07
-2.31758e-05
-6.09281e-07
-2.20465e-05
-6.42833e-07
-1.94413e-05
-6.90738e-07
-1.67547e-05
-5.60393e-07
-1.76278e-05
-4.80082e-07
-1.97629e-05
-5.86013e-07
-2.00138e-05
-5.59897e-07
-1.80098e-05
-5.59866e-07
-1.9159e-05
-4.67446e-07
-1.69053e-05
-5.63991e-07
-1.59718e-05
-4.48233e-07
-1.61713e-05
-6.00013e-07
-1.45617e-05
-4.5302e-07
-1.36043e-05
-4.7818e-07
-1.31744e-05
-3.87043e-07
-1.35499e-05
-5.11099e-07
-1.19936e-05
-4.26073e-07
-1.37572e-05
-4.30722e-07
-1.32236e-05
-5.01788e-07
-1.07899e-05
-3.97606e-07
-1.265e-05
-3.97718e-07
-1.20955e-05
-4.3392e-07
-9.86643e-06
-4.13337e-07
-1.04179e-05
-3.87072e-07
-1.11921e-05
-4.04132e-07
-1.02912e-05
-3.69681e-07
-9.66166e-06
-3.71178e-07
-9.80157e-06
-3.87134e-07
-9.69866e-06
-3.40145e-07
-8.46397e-06
-3.47659e-07
-7.34378e-06
-3.16691e-07
-7.29688e-06
-3.2371e-07
-7.65483e-06
-3.32875e-07
-8.11599e-06
-3.14796e-07
-7.99716e-06
-3.61922e-07
-7.80619e-06
-3.10436e-07
-7.46764e-06
-3.15262e-07
-5.85559e-06
-2.75811e-07
-4.70834e-06
-2.36741e-07
-4.31205e-06
-2.03587e-07
-4.50328e-06
-2.0744e-07
-4.92153e-06
-2.26769e-07
-4.0963e-06
-2.44927e-07
-3.47709e-06
-1.8601e-07
-3.0116e-06
-1.75041e-07
-2.56062e-06
-1.47216e-07
-2.88871e-06
-1.89311e-07
-1.9788e-06
-1.40419e-07
-1.11627e-06
-8.84036e-08
-6.19679e-07
-6.44911e-08
-3.61202e-08
-5.98957e-05
-1.84174e-06
-6.38786e-05
-1.68009e-06
-5.22179e-05
-1.05161e-06
-4.84854e-05
-6.86622e-07
-4.97712e-05
-4.86284e-07
-4.52982e-05
-3.52252e-07
-4.33656e-05
-2.60041e-07
-5.25275e-05
-1.5323e-07
-5.87325e-05
-1.30891e-07
-5.54853e-05
-7.89031e-08
-4.87267e-05
-4.53092e-08
-4.43979e-05
-1.34343e-08
-4.64609e-05
1.62767e-08
-4.43895e-05
4.33555e-08
-4.34133e-05
7.36732e-08
-4.8689e-05
1.19143e-07
-4.75047e-05
2.13426e-07
-4.863e-05
2.56151e-07
-5.10813e-05
4.75129e-07
-5.10353e-05
5.88191e-07
-5.37557e-05
8.44422e-07
-5.10094e-05
1.13749e-06
-5.11742e-05
1.61126e-06
-5.4666e-05
2.43628e-06
-6.44436e-05
2.78388e-06
-5.64557e-05
-5.02166e-06
-4.28181e-05
-5.54231e-06
-4.42501e-05
-4.17097e-06
-3.97116e-05
-3.16704e-06
-3.0135e-05
-2.04818e-06
-3.09674e-05
-1.49609e-06
-3.19498e-05
-1.43043e-06
-2.88897e-05
-1.07741e-06
-2.88566e-05
-1.1723e-06
-2.47185e-05
-1.08004e-06
-2.13471e-05
-8.58578e-07
-2.11408e-05
-7.10354e-07
-2.55921e-05
-7.12025e-07
-2.74686e-05
-8.25313e-07
-2.68194e-05
-8.11211e-07
-2.72311e-05
-8.19087e-07
-2.25874e-05
-7.91258e-07
-1.91425e-05
-5.84319e-07
-2.04699e-05
-5.84492e-07
-2.12377e-05
-6.23425e-07
-1.92478e-05
-5.31482e-07
-1.80435e-05
-5.47294e-07
-1.75927e-05
-5.59769e-07
-1.76872e-05
-5.2606e-07
-1.90188e-05
-5.78239e-07
-2.35959e-05
-6.04593e-07
-2.39997e-05
-6.6624e-07
-1.86446e-05
-5.73304e-07
-1.76482e-05
-4.88841e-07
-1.83622e-05
-6.01083e-07
-1.69839e-05
-4.9075e-07
-1.54919e-05
-4.81052e-07
-1.43599e-05
-4.81682e-07
-1.58726e-05
-5.46288e-07
-1.77801e-05
-4.87899e-07
-1.80243e-05
-5.53299e-07
-1.56936e-05
-5.30178e-07
-1.38196e-05
-4.32482e-07
-1.48387e-05
-4.65074e-07
-1.63715e-05
-4.69681e-07
-1.54686e-05
-4.82016e-07
-1.43148e-05
-5.50089e-07
-1.31497e-05
-4.30501e-07
-1.2824e-05
-4.27032e-07
-1.09934e-05
-4.23309e-07
-1.19624e-05
-3.77561e-07
-1.35285e-05
-4.8057e-07
-1.10933e-05
-4.1034e-07
-9.27126e-06
-3.45869e-07
-9.0761e-06
-3.63536e-07
-1.01609e-05
-3.4813e-07
-8.92162e-06
-4.32246e-07
-7.89907e-06
-3.33263e-07
-8.744e-06
-3.75646e-07
-9.64621e-06
-3.92032e-07
-9.57359e-06
-3.47051e-07
-7.77551e-06
-4.04342e-07
-7.28351e-06
-2.80921e-07
-7.19587e-06
-3.14076e-07
-6.10478e-06
-3.05115e-07
-5.72283e-06
-2.61326e-07
-5.88402e-06
-2.60942e-07
-5.5835e-06
-2.95088e-07
-4.84298e-06
-2.56196e-07
-4.59586e-06
-2.6853e-07
-4.60753e-06
-2.36263e-07
-4.70718e-06
-2.39752e-07
-3.39869e-06
-2.18153e-07
-2.88384e-06
-1.74796e-07
-3.26181e-06
-2.10957e-07
-2.2912e-06
-2.12489e-07
-1.47006e-06
-1.21698e-07
-1.18274e-06
-1.19924e-07
-5.39038e-07
-8.65839e-08
-7.41501e-08
-5.76122e-05
-1.71467e-06
-5.78424e-05
-1.21645e-06
-5.48404e-05
-7.29886e-07
-5.21204e-05
-6.39272e-07
-4.96371e-05
-3.38155e-07
-5.68335e-05
-2.53758e-07
-4.97969e-05
-2.25353e-07
-4.24217e-05
-1.2233e-07
-4.4337e-05
-9.06102e-08
-4.43566e-05
-6.36044e-08
-4.86962e-05
-2.85939e-08
-5.5464e-05
-1.12321e-08
-4.99136e-05
1.35105e-08
-4.43565e-05
3.52111e-08
-4.53446e-05
6.1098e-08
-5.11233e-05
1.02387e-07
-5.38342e-05
1.51075e-07
-5.68333e-05
1.93339e-07
-6.20468e-05
3.33652e-07
-5.35308e-05
4.60323e-07
-4.70098e-05
7.18397e-07
-4.37049e-05
9.49891e-07
-4.077e-05
1.37657e-06
-5.00112e-05
1.77467e-06
-6.28184e-05
4.29412e-08
-5.55307e-05
-4.64707e-06
-4.80634e-05
-4.4699e-06
-3.78326e-05
-3.13158e-06
-3.35142e-05
-1.99886e-06
-3.37802e-05
-1.58611e-06
-2.99036e-05
-1.38662e-06
-2.59152e-05
-1.10518e-06
-2.81367e-05
-9.37869e-07
-3.38434e-05
-1.08022e-06
-3.20958e-05
-1.11935e-06
-2.50476e-05
-8.94514e-07
-2.10415e-05
-6.38663e-07
-2.04762e-05
-6.61093e-07
-2.29122e-05
-5.82053e-07
-2.44144e-05
-7.22785e-07
-2.44987e-05
-5.93442e-07
-2.17561e-05
-7.26694e-07
-2.01195e-05
-5.2059e-07
-2.03274e-05
-6.0887e-07
-1.73164e-05
-5.32168e-07
-1.65592e-05
-4.7951e-07
-1.89216e-05
-5.06764e-07
-1.86764e-05
-5.46002e-07
-1.90844e-05
-5.20272e-07
-2.04615e-05
-5.72925e-07
-1.8447e-05
-5.44542e-07
-1.72747e-05
-5.37205e-07
-1.64249e-05
-4.49573e-07
-1.83032e-05
-4.50119e-07
-1.7511e-05
-5.58172e-07
-1.47985e-05
-4.81867e-07
-1.6198e-05
-3.81148e-07
-2.08038e-05
-6.0289e-07
-1.70412e-05
-5.07358e-07
-1.45504e-05
-4.04984e-07
-1.57546e-05
-4.18474e-07
-1.39744e-05
-4.88038e-07
-1.38325e-05
-3.85556e-07
-1.3636e-05
-4.82209e-07
-1.2525e-05
-3.66949e-07
-1.5618e-05
-4.59974e-07
-1.44698e-05
-5.21976e-07
-1.16914e-05
-3.76709e-07
-1.15859e-05
-3.7732e-07
-1.18648e-05
-3.82979e-07
-1.1493e-05
-3.82273e-07
-1.08918e-05
-3.88081e-07
-9.35261e-06
-3.56607e-07
-1.00534e-05
-3.13173e-07
-1.01086e-05
-4.05044e-07
-9.8542e-06
-3.31201e-07
-1.14472e-05
-3.80695e-07
-1.10218e-05
-3.97786e-07
-1.06991e-05
-4.17988e-07
-8.0433e-06
-3.47518e-07
-7.91866e-06
-2.64846e-07
-7.75107e-06
-3.60673e-07
-5.99582e-06
-2.5831e-07
-6.61966e-06
-2.72962e-07
-6.37538e-06
-3.00954e-07
-5.46707e-06
-2.44375e-07
-5.95544e-06
-2.50171e-07
-6.49373e-06
-2.61918e-07
-6.55243e-06
-3.07281e-07
-5.44183e-06
-2.94578e-07
-4.0172e-06
-2.22802e-07
-3.44735e-06
-1.82192e-07
-3.49331e-06
-1.99964e-07
-3.36907e-06
-2.05545e-07
-3.21836e-06
-1.71994e-07
-2.42128e-06
-1.62947e-07
-1.51033e-06
-1.09931e-07
-1.17201e-06
-9.99099e-08
-7.68593e-07
-9.02116e-08
-4.95966e-08
-5.09986e-05
-1.17936e-06
-4.76405e-05
-7.36836e-07
-5.45976e-05
-4.34428e-07
-5.33691e-05
-2.97697e-07
-4.50306e-05
-2.12176e-07
-5.09283e-05
-1.42278e-07
-5.52694e-05
-1.06509e-07
-5.53384e-05
-6.46002e-08
-6.23093e-05
-5.16278e-08
-5.25003e-05
-3.25972e-08
-4.8674e-05
-1.77227e-08
-5.70237e-05
-5.2684e-09
-5.70174e-05
6.64729e-09
-5.54152e-05
2.02231e-08
-5.6965e-05
3.4153e-08
-5.38367e-05
5.06e-08
-4.52112e-05
7.15289e-08
-4.51243e-05
1.12188e-07
-4.71433e-05
1.87451e-07
-5.33046e-05
2.37661e-07
-5.6038e-05
4.66353e-07
-4.99095e-05
5.87482e-07
-4.71045e-05
1.00933e-06
-4.43872e-05
1.46638e-06
-4.42883e-05
-1.36428e-06
-4.38236e-05
-2.7495e-06
-3.92992e-05
-2.52118e-06
-2.98985e-05
-1.78743e-06
-2.40193e-05
-1.19931e-06
-2.63341e-05
-9.79119e-07
-3.31222e-05
-1.10751e-06
-3.23446e-05
-1.07078e-06
-2.94857e-05
-8.69202e-07
-3.0485e-05
-8.12781e-07
-2.89803e-05
-7.58684e-07
-2.32863e-05
-6.59429e-07
-2.25459e-05
-5.68192e-07
-2.1088e-05
-5.74527e-07
-1.94816e-05
-4.65886e-07
-1.9139e-05
-5.17979e-07
-1.94695e-05
-4.41541e-07
-2.12054e-05
-5.01961e-07
-2.07193e-05
-4.38966e-07
-2.27661e-05
-4.9352e-07
-2.11997e-05
-5.29521e-07
-2.01351e-05
-3.95821e-07
-1.83541e-05
-4.66621e-07
-1.87737e-05
-3.59062e-07
-1.90936e-05
-4.54493e-07
-1.85803e-05
-3.55853e-07
-2.0026e-05
-4.66987e-07
-1.71046e-05
-3.8789e-07
-1.48555e-05
-3.46443e-07
-1.62904e-05
-3.26916e-07
-1.90793e-05
-4.14829e-07
-1.47007e-05
-3.60988e-07
-1.53457e-05
-3.05639e-07
-1.60397e-05
-4.18189e-07
-1.25512e-05
-3.055e-07
-1.21947e-05
-2.79153e-07
-1.36934e-05
-3.24847e-07
-1.45446e-05
-3.56591e-07
-1.38221e-05
-3.18706e-07
-1.31565e-05
-3.09633e-07
-1.35055e-05
-3.19524e-07
-1.48526e-05
-3.44966e-07
-1.23433e-05
-3.55073e-07
-1.10471e-05
-2.63764e-07
-1.10707e-05
-3.16666e-07
-1.04437e-05
-2.68987e-07
-1.06639e-05
-2.83854e-07
-1.03455e-05
-2.79499e-07
-9.78247e-06
-2.69812e-07
-9.67753e-06
-2.73715e-07
-9.89131e-06
-3.02839e-07
-8.65506e-06
-2.66969e-07
-8.65346e-06
-2.37288e-07
-9.91795e-06
-2.93409e-07
-8.58951e-06
-2.81732e-07
-7.07193e-06
-2.29554e-07
-7.01344e-06
-2.31882e-07
-7.26521e-06
-2.43314e-07
-7.25514e-06
-2.24445e-07
-6.97655e-06
-2.56876e-07
-6.07648e-06
-2.26987e-07
-5.57554e-06
-2.02553e-07
-5.0754e-06
-2.11045e-07
-5.46235e-06
-2.05447e-07
-6.25472e-06
-2.32059e-07
-5.19508e-06
-2.29304e-07
-4.11172e-06
-1.81626e-07
-3.88556e-06
-1.78293e-07
-3.86271e-06
-1.8833e-07
-2.88195e-06
-1.62424e-07
-2.06136e-06
-1.30605e-07
-2.01699e-06
-1.22219e-07
-2.13386e-06
-1.35575e-07
-1.44344e-06
-1.10414e-07
-6.8216e-07
-6.52106e-08
-3.4025e-08
-4.67239e-05
-5.55126e-05
-4.7802e-05
-5.18736e-05
-6.18452e-05
-5.36377e-05
-4.5194e-05
-4.52571e-05
-4.63541e-05
-5.11401e-05
-5.25041e-05
-4.64038e-05
-4.98778e-05
-4.98591e-05
-4.42896e-05
-4.23608e-05
-5.09713e-05
-6.39805e-05
-5.81422e-05
-5.46414e-05
-5.13728e-05
-4.38206e-05
-4.40206e-05
-4.81433e-05
-4.12236e-05
-3.49369e-05
-3.6013e-05
-2.59168e-05
-2.31798e-05
-2.39782e-05
-2.84038e-05
-2.60151e-05
-2.2348e-05
-1.90788e-05
-1.77245e-05
-2.08956e-05
-2.06058e-05
-1.79287e-05
-1.83504e-05
-1.79497e-05
-1.62563e-05
-1.47545e-05
-1.65099e-05
-2.05944e-05
-1.61958e-05
-1.4172e-05
-1.39875e-05
-1.2411e-05
-1.23935e-05
-1.35536e-05
-1.48478e-05
-1.31562e-05
-1.38139e-05
-1.44528e-05
-1.24101e-05
-1.27445e-05
-1.35931e-05
-1.17482e-05
-1.0162e-05
-1.19456e-05
-1.36731e-05
-1.07916e-05
-9.12352e-06
-9.88289e-06
-1.10607e-05
-1.05301e-05
-9.55295e-06
-9.70809e-06
-9.82079e-06
-8.59774e-06
-8.34487e-06
-8.09012e-06
-8.87421e-06
-1.04115e-05
-8.34572e-06
-6.56837e-06
-6.72897e-06
-6.84205e-06
-6.12174e-06
-6.70004e-06
-7.16588e-06
-5.80791e-06
-5.92581e-06
-6.40128e-06
-5.35083e-06
-5.19882e-06
-5.84837e-06
-4.65395e-06
-4.05136e-06
-3.87808e-06
-3.91245e-06
-4.05877e-06
-3.03419e-06
-2.6787e-06
-2.50273e-06
-1.71134e-06
-1.44073e-06
-1.04675e-06
-5.71087e-07
)
;

boundaryField
{
    inlet
    {
        type            fixedValue;
        value           uniform 0;
    }
    outlet
    {
        type            calculated;
        value           nonuniform List<scalar> 10(5.92738e-05 4.94277e-05 4.44759e-05 4.82195e-05 6.69363e-05 4.97978e-05 5.48551e-05 5.1424e-05 5.34455e-05 3.8878e-05);
    }
    walls
    {
        type            fixedValue;
        value           uniform 0;
    }
}


// ************************************************************************* //
