/*--------------------------------*- C++ -*----------------------------------*\
| =========                 |                                                 |
| \\      /  F ield         | foam-extend: Open Source CFD                    |
|  \\    /   O peration     | Version:     5.0                                |
|   \\  /    A nd           | Web:         http://www.foam-extend.org         |
|    \\/     M anipulation  |                                                 |
\*---------------------------------------------------------------------------*/
FoamFile
{
    version     2.0;
    format      ascii;
    class       surfaceScalarField;
    location    "10000";
    object      phi.gas;
}
// * * * * * * * * * * * * * * * * * * * * * * * * * * * * * * * * * * * * * //

dimensions      [0 3 -1 0 0 0 0];

internalField   nonuniform List<scalar> 
1890
(
0
0
0
0
0
0
0
0
0
0
0
0
0
0
0
0
0
0
0
0
0
0
0
0
0
0
0
0
0
0
0
0
0
0
0
0
0
0
0
0
0
0
0
0
0
0
0
0
3.45321e-37
0
5.31319e-19
-8.1703e-16
-2.24374e-10
-4.73197e-11
-2.36525e-07
-4.28007e-09
-8.88764e-06
-1.32265e-07
-3.55904e-05
-8.31699e-06
-4.79571e-05
-6.52925e-06
-4.73302e-05
-3.75469e-06
-4.68454e-05
-1.57809e-06
-5.0734e-05
-5.2251e-07
-4.82e-05
-1.20213e-07
-4.38123e-05
4.38878e-08
-4.49724e-05
1.24746e-07
-5.44902e-05
1.68714e-07
-6.0601e-05
2.1413e-07
-5.7626e-05
2.45462e-07
-6.11184e-05
3.06855e-07
-5.95567e-05
2.976e-07
-5.3794e-05
2.45488e-07
-5.27248e-05
2.83017e-07
-5.56095e-05
2.87322e-07
-5.43738e-05
3.5973e-07
-6.07207e-05
3.02929e-07
-7.05556e-05
4.2186e-07
-5.76948e-05
3.67506e-07
-4.89831e-05
3.55463e-07
-5.40322e-05
3.58463e-07
-5.41026e-05
4.436e-07
-5.18724e-05
3.96408e-07
-6.38874e-05
3.19576e-07
-6.77608e-05
3.66224e-07
-6.60236e-05
4.44598e-07
-5.76314e-05
5.05336e-07
-4.80571e-05
3.83789e-07
-4.72054e-05
3.51722e-07
-4.94028e-05
3.44024e-07
-5.29858e-05
4.68183e-07
-5.43667e-05
4.34634e-07
-5.31936e-05
3.61257e-07
-6.20159e-05
3.78041e-07
-5.8755e-05
5.3921e-07
-5.11299e-05
3.32079e-07
-5.61676e-05
4.73937e-07
-6.40378e-05
3.53991e-07
-7.43386e-05
4.49379e-07
-6.39483e-05
3.61806e-07
-6.41456e-05
4.348e-07
-6.58317e-05
4.55938e-07
-5.49604e-05
4.77163e-07
-5.13519e-05
4.54956e-07
-4.92214e-05
5.11237e-07
-5.26181e-05
3.72875e-07
-5.37309e-05
3.75834e-07
-5.50563e-05
3.8482e-07
-5.7665e-05
3.85077e-07
-5.36084e-05
3.92394e-07
-5.61876e-05
4.09306e-07
-6.76439e-05
4.76385e-07
-6.18679e-05
3.34447e-07
-5.45205e-05
4.32316e-07
-5.70969e-05
4.57756e-07
-5.69432e-05
4.05821e-07
-5.67209e-05
3.13057e-07
-5.64577e-05
2.888e-07
-5.35446e-05
4.04156e-07
-5.09258e-05
3.91741e-07
-4.84738e-05
4.09381e-07
-5.04846e-05
4.63224e-07
-6.12272e-05
3.24343e-07
-5.89355e-05
1.75844e-07
-5.41593e-05
2.57766e-07
-4.99082e-05
3.83657e-07
-4.84448e-05
3.63837e-07
-5.13697e-05
4.349e-07
-5.32271e-05
1.72126e-07
3.21056e-07
0
0
0
0
0
0
0
0
0
0
0
0
0
0
0
0
0
0
0
0
0
0
0
0
0
0
0
0
0
0
0
0
0
0
0
0
0
0
0
0
0
0
0
0
0
0
0
0
-6.51816e-14
-1.67306e-20
-5.07083e-08
-1.17536e-11
-4.75823e-06
-1.75157e-09
-3.31617e-05
-5.87339e-09
-6.02837e-05
-3.1237e-06
-5.91122e-05
-3.80415e-06
-6.50745e-05
-3.65081e-06
-7.83066e-05
-2.7003e-06
-7.29797e-05
-1.8388e-06
-6.75687e-05
-9.25541e-07
-6.38372e-05
-5.0463e-07
-6.23336e-05
-1.73338e-07
-6.66488e-05
-8.19195e-08
-6.64791e-05
4.08146e-08
-6.80621e-05
1.08473e-07
-7.57349e-05
2.06121e-07
-7.77417e-05
2.42248e-07
-6.2842e-05
2.12724e-07
-5.87498e-05
2.86745e-07
-6.14112e-05
3.83309e-07
-6.77343e-05
3.38746e-07
-6.93331e-05
3.7293e-07
-7.12421e-05
3.1097e-07
-7.30227e-05
3.87621e-07
-6.74536e-05
4.54102e-07
-6.73679e-05
3.78438e-07
-7.10162e-05
5.37302e-07
-7.71729e-05
5.57021e-07
-6.38895e-05
4.47906e-07
-5.70137e-05
4.04928e-07
-6.89899e-05
4.38428e-07
-8.43339e-05
4.62432e-07
-7.45372e-05
4.79981e-07
-6.06596e-05
5.20298e-07
-5.54821e-05
5.12654e-07
-6.51826e-05
4.6434e-07
-7.63947e-05
6.28507e-07
-6.3234e-05
4.84341e-07
-5.89093e-05
4.99414e-07
-7.18843e-05
5.18137e-07
-6.60943e-05
5.7174e-07
-6.61322e-05
4.04093e-07
-6.74848e-05
4.75737e-07
-6.41262e-05
4.80127e-07
-6.54961e-05
5.41477e-07
-6.90001e-05
4.52365e-07
-7.93241e-05
3.94757e-07
-7.90817e-05
3.74765e-07
-7.86997e-05
4.07358e-07
-7.83813e-05
3.67137e-07
-6.39664e-05
5.17221e-07
-5.19014e-05
5.24686e-07
-5.39933e-05
5.24403e-07
-5.62268e-05
5.9669e-07
-5.73146e-05
4.76697e-07
-6.1361e-05
5.82972e-07
-7.18084e-05
4.59839e-07
-6.5546e-05
5.28229e-07
-6.3631e-05
3.2773e-07
-7.266e-05
3.82899e-07
-6.62408e-05
5.22473e-07
-5.5147e-05
4.6011e-07
-4.92222e-05
5.42746e-07
-5.73167e-05
4.25473e-07
-6.46269e-05
3.92815e-07
-6.07816e-05
4.25164e-07
-6.73986e-05
4.72113e-07
-6.66032e-05
3.60849e-07
-5.34527e-05
3.20287e-07
-5.30592e-05
2.97995e-07
-6.47095e-05
2.25621e-07
-6.19288e-05
2.00632e-07
-6.13033e-05
4.30374e-07
-5.41012e-05
3.94379e-07
-5.21571e-05
2.49308e-07
2.55111e-07
0
0
0
0
0
0
0
0
0
0
0
0
0
0
0
0
0
0
0
0
0
0
0
0
0
0
0
0
0
0
0
0
0
0
0
0
0
0
0
0
0
0
0
0
0
0
9.34832e-16
0
-1.24102e-08
-5.59954e-17
-2.02523e-06
5.95992e-10
-2.36581e-05
4.52834e-08
-6.2079e-05
-3.50706e-08
-6.1503e-05
-7.45088e-07
-7.17688e-05
-1.79339e-06
-7.30101e-05
-2.80706e-06
-6.40256e-05
-1.94851e-06
-6.58436e-05
-1.53964e-06
-7.05991e-05
-8.98861e-07
-7.84709e-05
-6.3757e-07
-7.58376e-05
-4.20258e-07
-7.58239e-05
-2.09773e-07
-8.23002e-05
-1.34086e-07
-8.47012e-05
-4.10101e-08
-8.71776e-05
9.46508e-08
-7.09864e-05
1.24869e-07
-6.58765e-05
1.7804e-07
-7.70086e-05
2.83965e-07
-7.46497e-05
3.46491e-07
-6.71758e-05
3.36865e-07
-6.24426e-05
4.41643e-07
-6.24571e-05
3.27211e-07
-7.44953e-05
3.72593e-07
-6.68414e-05
4.59689e-07
-6.86939e-05
4.62723e-07
-8.60502e-05
5.46939e-07
-7.00756e-05
5.07478e-07
-6.0546e-05
5.07728e-07
-6.33641e-05
5.08098e-07
-6.64259e-05
5.78617e-07
-6.6332e-05
4.30765e-07
-6.9727e-05
4.41395e-07
-7.14277e-05
5.40716e-07
-6.43213e-05
5.89108e-07
-6.93399e-05
5.99028e-07
-7.09145e-05
5.35655e-07
-6.71968e-05
4.2813e-07
-7.25081e-05
4.67768e-07
-7.22797e-05
4.55434e-07
-6.17921e-05
5.70761e-07
-5.63736e-05
5.73356e-07
-6.46684e-05
4.90695e-07
-7.57836e-05
5.8031e-07
-7.77479e-05
4.04773e-07
-6.55234e-05
4.07909e-07
-5.9332e-05
4.3043e-07
-6.05357e-05
3.62868e-07
-5.63413e-05
4.93405e-07
-5.8833e-05
3.90721e-07
-6.80247e-05
4.6478e-07
-6.76817e-05
5.69667e-07
-7.12069e-05
5.04303e-07
-6.69081e-05
5.56539e-07
-6.84969e-05
4.28529e-07
-6.98819e-05
4.8652e-07
-6.76383e-05
3.70158e-07
-6.04341e-05
3.7303e-07
-5.23594e-05
3.52683e-07
-6.13778e-05
3.38205e-07
-6.25177e-05
5.22034e-07
-6.21842e-05
4.15403e-07
-5.85342e-05
5.4806e-07
-4.95209e-05
5.01291e-07
-5.02717e-05
4.634e-07
-5.59731e-05
5.32323e-07
-5.41316e-05
4.89926e-07
-5.02132e-05
4.71105e-07
-5.20763e-05
4.10046e-07
-4.92079e-05
3.11277e-07
-4.57319e-05
3.70955e-07
-5.44156e-05
4.03288e-07
-6.69182e-05
3.97524e-07
-5.2754e-05
2.28303e-07
-5.08657e-05
3.96033e-07
2.18709e-07
0
0
0
0
0
0
0
0
0
0
0
0
0
0
0
0
0
0
0
0
0
0
0
0
0
0
0
0
0
0
0
0
0
0
0
0
0
0
0
0
0
0
0
0
0
0
1.73658e-19
-1.81809e-39
-1.34429e-09
-6.72042e-15
-7.08716e-07
-8.14659e-11
-2.20702e-05
-2.39953e-09
-5.0115e-05
-2.237e-06
-5.57284e-05
-5.09575e-06
-5.82202e-05
-2.62844e-06
-5.77525e-05
-2.19667e-06
-6.95918e-05
-1.46449e-06
-6.83005e-05
-1.43045e-06
-6.78472e-05
-7.34573e-07
-7.91962e-05
-6.15735e-07
-6.41876e-05
-3.29738e-07
-6.16107e-05
-1.07847e-07
-6.14552e-05
-5.26718e-08
-6.78461e-05
5.00482e-08
-6.9262e-05
8.50094e-08
-5.7656e-05
2.56618e-07
-6.30839e-05
2.65316e-07
-7.31404e-05
2.97411e-07
-7.11023e-05
3.09576e-07
-7.71815e-05
3.24474e-07
-7.08441e-05
4.72823e-07
-6.26976e-05
4.01748e-07
-7.08163e-05
3.69173e-07
-7.90055e-05
3.93755e-07
-8.11726e-05
4.41607e-07
-7.42953e-05
4.61737e-07
-7.42526e-05
5.36974e-07
-7.40314e-05
4.4582e-07
-7.60542e-05
5.97205e-07
-6.80542e-05
6.64174e-07
-5.89997e-05
4.77733e-07
-6.46589e-05
4.85589e-07
-7.14669e-05
5.49108e-07
-7.75912e-05
6.14535e-07
-7.10379e-05
5.73354e-07
-5.83645e-05
5.7167e-07
-5.70476e-05
5.47256e-07
-5.81618e-05
4.77765e-07
-6.53612e-05
5.9285e-07
-8.13688e-05
5.42835e-07
-7.40427e-05
5.114e-07
-7.18485e-05
5.01543e-07
-6.60417e-05
6.23678e-07
-5.84907e-05
4.46143e-07
-6.57678e-05
3.86146e-07
-6.07901e-05
4.39319e-07
-6.21973e-05
4.3051e-07
-6.18532e-05
6.04243e-07
-5.62733e-05
5.64442e-07
-6.46526e-05
5.00483e-07
-6.43406e-05
6.65804e-07
-6.41528e-05
6.35921e-07
-6.21913e-05
4.67244e-07
-6.20084e-05
5.75923e-07
-6.32094e-05
4.17735e-07
-5.84451e-05
3.95549e-07
-5.68461e-05
4.77437e-07
-5.40721e-05
5.45391e-07
-6.37638e-05
4.35404e-07
-6.86653e-05
5.71206e-07
-6.64576e-05
4.54352e-07
-7.18944e-05
4.70941e-07
-6.53472e-05
4.03669e-07
-6.67023e-05
4.69678e-07
-6.7985e-05
4.80687e-07
-6.55318e-05
4.47279e-07
-6.30783e-05
4.24826e-07
-5.2298e-05
3.85994e-07
-4.95817e-05
4.1773e-07
-5.51377e-05
5.36107e-07
-6.2302e-05
5.78318e-07
-6.14734e-05
3.78783e-07
-6.06761e-05
1.51426e-07
-6.11311e-05
1.43156e-07
1.03667e-07
0
0
0
0
0
0
0
0
0
0
0
0
0
0
0
0
0
0
0
0
0
0
0
0
0
0
0
0
0
0
0
0
0
0
0
0
0
0
0
0
0
0
0
0
6.80368e-29
0
-7.45965e-12
-2.25493e-18
-8.81903e-08
-1.72112e-11
-5.43786e-06
-3.70251e-09
-3.64931e-05
-1.02244e-06
-7.33532e-05
-4.99015e-06
-6.4513e-05
-4.19019e-06
-6.27575e-05
-3.03e-06
-6.3513e-05
-2.05787e-06
-6.11589e-05
-1.45178e-06
-7.11882e-05
-1.05322e-06
-8.13587e-05
-8.75214e-07
-7.07213e-05
-6.53268e-07
-6.42165e-05
-3.03997e-07
-6.27128e-05
-1.38225e-07
-6.27653e-05
-3.31218e-08
-5.99213e-05
5.7726e-08
-6.93817e-05
1.89664e-07
-7.69158e-05
2.11738e-07
-6.73482e-05
2.77219e-07
-6.73094e-05
3.26221e-07
-6.56017e-05
2.69925e-07
-7.26811e-05
3.25713e-07
-7.65849e-05
3.49565e-07
-6.37667e-05
4.62542e-07
-5.95495e-05
4.6638e-07
-6.22841e-05
4.99611e-07
-6.52758e-05
5.25093e-07
-7.42868e-05
4.98967e-07
-6.83804e-05
5.97977e-07
-7.02519e-05
4.27585e-07
-8.85778e-05
4.93737e-07
-7.36299e-05
5.55845e-07
-6.30859e-05
5.84004e-07
-6.61296e-05
5.5929e-07
-7.3301e-05
5.53074e-07
-7.11244e-05
6.71919e-07
-6.91538e-05
4.8577e-07
-7.27964e-05
6.62547e-07
-6.37126e-05
5.4511e-07
-6.86978e-05
5.40326e-07
-7.41525e-05
5.06157e-07
-6.17107e-05
5.50764e-07
-6.16058e-05
4.8576e-07
-7.16514e-05
4.80447e-07
-7.13769e-05
6.60268e-07
-5.82467e-05
4.41625e-07
-5.56173e-05
4.49172e-07
-5.93224e-05
5.67064e-07
-6.8693e-05
4.53324e-07
-7.89797e-05
4.51979e-07
-6.79425e-05
5.28977e-07
-6.96161e-05
4.87567e-07
-8.29686e-05
4.86759e-07
-6.34498e-05
5.22931e-07
-6.1759e-05
4.84651e-07
-6.12778e-05
5.60711e-07
-5.09353e-05
4.36398e-07
-5.53111e-05
4.41922e-07
-6.36403e-05
4.87923e-07
-5.71758e-05
5.39441e-07
-5.69703e-05
5.53244e-07
-5.9373e-05
5.59868e-07
-5.49832e-05
5.83303e-07
-5.22181e-05
5.57581e-07
-5.31281e-05
4.58338e-07
-5.79174e-05
4.4054e-07
-5.60801e-05
4.51721e-07
-5.31095e-05
5.70624e-07
-5.04159e-05
6.20208e-07
-5.0013e-05
5.09142e-07
-5.71331e-05
5.7065e-07
-6.86612e-05
4.08816e-07
-6.78018e-05
5.26234e-07
-5.50242e-05
4.03702e-07
-5.3048e-05
2.17069e-07
-5.78275e-05
8.59205e-08
2.74867e-08
0
0
0
0
0
0
0
0
0
0
0
0
0
0
0
0
0
0
0
0
0
0
0
0
0
0
0
0
0
0
0
0
0
0
0
0
0
0
0
0
0
0
0
0
2.74889e-14
-8.07482e-33
-1.79091e-08
-9.60172e-14
-4.28256e-06
-1.07146e-10
-2.86147e-05
1.22349e-08
-6.94026e-05
-2.10703e-06
-6.10748e-05
-4.40999e-06
-7.0167e-05
-3.26289e-06
-7.04357e-05
-2.77749e-06
-6.68411e-05
-1.61201e-06
-6.82491e-05
-1.39532e-06
-6.23309e-05
-8.66321e-07
-7.26119e-05
-5.88877e-07
-8.3075e-05
-5.82426e-07
-7.61583e-05
-3.51439e-07
-6.83705e-05
-2.25056e-07
-6.07974e-05
-6.13257e-08
-7.20629e-05
8.34034e-08
-7.78397e-05
1.2129e-07
-7.17765e-05
2.21228e-07
-8.00812e-05
2.50827e-07
-7.14478e-05
2.44812e-07
-6.62758e-05
2.45391e-07
-6.95301e-05
3.57691e-07
-7.74332e-05
2.8859e-07
-8.99988e-05
3.41441e-07
-8.97273e-05
3.10588e-07
-8.9471e-05
3.79983e-07
-8.11e-05
3.71965e-07
-7.86392e-05
4.9805e-07
-7.01917e-05
5.7802e-07
-6.2034e-05
5.29816e-07
-6.65795e-05
4.1345e-07
-7.59601e-05
5.49252e-07
-7.79117e-05
4.89103e-07
-7.14282e-05
5.23316e-07
-7.75602e-05
4.25412e-07
-6.91084e-05
5.21073e-07
-6.73344e-05
4.8178e-07
-6.87879e-05
6.60542e-07
-6.37042e-05
5.4038e-07
-6.04982e-05
5.47652e-07
-6.04558e-05
4.61535e-07
-6.31658e-05
6.43613e-07
-5.74509e-05
5.6992e-07
-6.7947e-05
5.92165e-07
-6.58465e-05
5.52212e-07
-5.57894e-05
5.09751e-07
-6.72972e-05
4.9395e-07
-6.51734e-05
4.74275e-07
-5.51706e-05
5.77442e-07
-6.02646e-05
5.0661e-07
-6.62771e-05
4.55794e-07
-6.26612e-05
4.10661e-07
-6.09267e-05
4.53508e-07
-6.37926e-05
5.16555e-07
-6.51097e-05
4.32889e-07
-5.86251e-05
4.92303e-07
-5.3331e-05
5.50602e-07
-5.54916e-05
5.97022e-07
-6.07138e-05
5.79356e-07
-6.70127e-05
4.4578e-07
-6.84044e-05
5.46878e-07
-6.99699e-05
4.38759e-07
-6.93706e-05
4.36709e-07
-5.71117e-05
4.70609e-07
-4.95515e-05
5.96957e-07
-4.92415e-05
5.40372e-07
-5.60632e-05
5.68947e-07
-6.49995e-05
5.32517e-07
-5.77569e-05
6.51371e-07
-5.58646e-05
5.67919e-07
-5.24687e-05
4.28834e-07
-5.47056e-05
5.14836e-07
-6.74246e-05
4.70503e-07
-5.3194e-05
1.77006e-07
-4.38786e-05
3.43908e-07
-4.41939e-05
2.93275e-07
4.75355e-07
0
0
0
0
0
0
0
0
0
0
0
0
0
0
0
0
0
0
0
0
0
0
0
0
0
0
0
0
0
0
0
0
0
0
0
0
0
0
0
0
0
0
3.88495e-24
-2.47945e-43
-1.06186e-10
-1.50132e-15
-2.80007e-07
-5.50341e-11
-1.27797e-05
-6.68123e-09
-4.38848e-05
-2.27554e-06
-6.9435e-05
-6.09246e-06
-7.98079e-05
-4.66245e-06
-7.34167e-05
-3.63117e-06
-6.34215e-05
-2.23934e-06
-7.13909e-05
-1.30493e-06
-7.47555e-05
-1.07053e-06
-7.15223e-05
-6.25073e-07
-7.35383e-05
-4.73836e-07
-6.50368e-05
-2.79105e-07
-5.84336e-05
-1.06079e-07
-5.98351e-05
-5.69668e-08
-7.43744e-05
-1.59764e-08
-8.05088e-05
-1.06942e-08
-8.05964e-05
1.08923e-07
-8.27582e-05
1.35684e-07
-7.00099e-05
2.54083e-07
-6.06723e-05
2.20655e-07
-6.66804e-05
3.32247e-07
-6.98471e-05
3.11515e-07
-6.48847e-05
2.75954e-07
-6.18234e-05
2.90352e-07
-6.18794e-05
3.69009e-07
-6.31689e-05
3.25613e-07
-6.96979e-05
4.47275e-07
-8.73725e-05
4.23406e-07
-9.00801e-05
4.81452e-07
-7.08877e-05
4.15318e-07
-6.91157e-05
4.4664e-07
-7.25693e-05
5.49437e-07
-6.8827e-05
4.62666e-07
-6.36957e-05
4.26936e-07
-6.08284e-05
5.58536e-07
-6.84632e-05
5.86562e-07
-7.83125e-05
4.66967e-07
-8.03591e-05
5.19808e-07
-7.1513e-05
5.7886e-07
-6.43361e-05
4.51861e-07
-7.11855e-05
5.7211e-07
-7.93712e-05
4.78286e-07
-7.68438e-05
5.80861e-07
-7.22869e-05
6.86284e-07
-6.83515e-05
4.91972e-07
-6.80391e-05
4.77535e-07
-5.9919e-05
5.13037e-07
-6.76745e-05
4.67621e-07
-7.74083e-05
5.42023e-07
-6.52443e-05
4.69243e-07
-5.63477e-05
4.13484e-07
-5.75015e-05
5.40749e-07
-6.62329e-05
4.36005e-07
-5.96306e-05
6.10664e-07
-5.55381e-05
5.54035e-07
-6.37886e-05
6.35575e-07
-7.27136e-05
5.94651e-07
-7.43543e-05
4.42254e-07
-6.25461e-05
6.26424e-07
-6.22717e-05
4.00582e-07
-6.33964e-05
4.2627e-07
-5.71042e-05
5.18025e-07
-5.67444e-05
4.11856e-07
-6.23232e-05
4.87628e-07
-6.1758e-05
6.47784e-07
-5.83269e-05
7.24526e-07
-5.93271e-05
7.45699e-07
-6.56221e-05
5.49192e-07
-7.09233e-05
4.19533e-07
-5.61471e-05
4.78706e-07
-5.7169e-05
4.88353e-07
-7.08655e-05
4.67817e-07
-5.56887e-05
4.47198e-07
-5.13629e-05
3.17112e-07
-5.2977e-05
3.55101e-07
-5.50573e-05
4.53195e-07
2.17466e-07
0
0
0
0
0
0
0
0
0
0
0
0
0
0
0
0
0
0
0
0
0
0
0
0
0
0
0
0
0
0
0
0
0
0
0
0
0
0
0
0
5.46761e-32
0
-1.23216e-12
-5.26841e-31
-5.52286e-08
-1.77197e-13
-8.16584e-06
6.33756e-10
-5.00468e-05
7.36765e-08
-7.96105e-05
-2.42487e-06
-7.88156e-05
-4.4115e-06
-7.09391e-05
-3.68973e-06
-7.11238e-05
-2.49549e-06
-7.48151e-05
-1.92293e-06
-6.93793e-05
-1.31592e-06
-6.36478e-05
-7.00322e-07
-7.25274e-05
-4.33872e-07
-8.85774e-05
-4.59936e-07
-8.57601e-05
-3.65144e-07
-6.86545e-05
-1.44998e-07
-5.99581e-05
1.43597e-08
-6.00272e-05
8.36205e-08
-6.9126e-05
5.07534e-08
-7.44848e-05
7.71008e-08
-7.66111e-05
8.07483e-08
-6.87412e-05
1.81272e-07
-6.56347e-05
2.33622e-07
-6.70271e-05
3.57685e-07
-5.85663e-05
3.96608e-07
-5.734e-05
3.28333e-07
-6.7146e-05
3.61005e-07
-6.68482e-05
2.92732e-07
-7.03809e-05
3.81958e-07
-7.5851e-05
3.4168e-07
-7.00623e-05
4.52293e-07
-6.64906e-05
4.22177e-07
-6.49207e-05
3.88668e-07
-7.3457e-05
3.82272e-07
-7.13884e-05
5.55378e-07
-6.15555e-05
4.89711e-07
-6.94265e-05
3.81495e-07
-8.97987e-05
6.05282e-07
-7.45571e-05
4.12416e-07
-6.53512e-05
3.52926e-07
-7.22372e-05
4.10566e-07
-6.49454e-05
5.19609e-07
-6.65339e-05
4.48262e-07
-6.61394e-05
5.10537e-07
-6.29688e-05
4.49488e-07
-7.98014e-05
5.57446e-07
-7.49289e-05
5.98948e-07
-6.22768e-05
4.13321e-07
-6.36351e-05
4.76873e-07
-6.65786e-05
4.35983e-07
-6.63266e-05
4.556e-07
-6.44085e-05
4.57199e-07
-5.70631e-05
4.67137e-07
-6.40526e-05
4.63272e-07
-6.52365e-05
5.54636e-07
-6.68059e-05
4.49913e-07
-7.86915e-05
3.8714e-07
-7.82724e-05
5.04509e-07
-7.77452e-05
5.207e-07
-6.03108e-05
4.19222e-07
-6.32131e-05
3.82718e-07
-6.26509e-05
4.9501e-07
-5.18084e-05
4.53942e-07
-6.05882e-05
5.32031e-07
-6.00791e-05
5.02478e-07
-5.5625e-05
4.60429e-07
-6.41224e-05
4.66941e-07
-7.34703e-05
4.59508e-07
-7.76116e-05
6.18587e-07
-6.78497e-05
6.22833e-07
-5.44781e-05
4.89332e-07
-5.28588e-05
4.60686e-07
-5.92166e-05
5.1574e-07
-6.3524e-05
4.48662e-07
-6.8611e-05
2.16888e-07
-5.69755e-05
1.75037e-07
-4.76595e-05
4.47186e-07
-5.29378e-05
5.1696e-07
-5.19207e-05
3.8814e-07
3.91296e-07
0
0
0
0
0
0
0
0
0
0
0
0
0
0
0
0
0
0
0
0
0
0
0
0
0
0
0
0
0
0
0
0
0
0
0
0
0
0
0
0
7.51885e-23
0
-2.0089e-10
-2.06512e-22
-2.75738e-07
-3.58887e-12
-1.08867e-05
1.97491e-09
-5.89759e-05
5.8961e-09
-7.63114e-05
-1.48769e-06
-7.49337e-05
-2.37494e-06
-6.47388e-05
-1.87707e-06
-5.99491e-05
-1.27903e-06
-7.07625e-05
-9.86608e-07
-9.00513e-05
-8.88693e-07
-9.00236e-05
-6.35056e-07
-8.48747e-05
-4.57469e-07
-9.01847e-05
-4.3398e-07
-8.71513e-05
-4.37894e-07
-7.19315e-05
-1.91404e-07
-7.21345e-05
5.94915e-08
-6.84623e-05
1.42498e-08
-6.55195e-05
7.74651e-08
-6.53916e-05
9.09342e-08
-6.86235e-05
1.02469e-07
-7.55731e-05
6.64702e-08
-7.54684e-05
1.11814e-07
-8.42018e-05
2.76525e-07
-7.93275e-05
3.35295e-07
-7.7072e-05
1.71467e-07
-7.10293e-05
2.25676e-07
-7.47554e-05
1.49414e-07
-7.63248e-05
1.49831e-07
-7.63108e-05
1.70651e-07
-8.26659e-05
2.79659e-07
-7.1974e-05
2.78015e-07
-6.36268e-05
2.62203e-07
-7.1772e-05
3.61001e-07
-8.43663e-05
3.13371e-07
-6.6106e-05
2.94351e-07
-7.11424e-05
3.43217e-07
-7.45846e-05
3.56947e-07
-5.99032e-05
2.46567e-07
-5.97564e-05
2.66998e-07
-6.85488e-05
4.22488e-07
-7.38104e-05
3.72977e-07
-7.15681e-05
2.66026e-07
-6.94287e-05
2.435e-07
-7.29168e-05
3.55317e-07
-8.13766e-05
3.47717e-07
-6.85606e-05
3.41428e-07
-6.35124e-05
2.9426e-07
-6.47249e-05
4.03903e-07
-6.29636e-05
3.17491e-07
-6.57693e-05
3.10543e-07
-6.54609e-05
3.0841e-07
-6.35449e-05
3.34561e-07
-6.48548e-05
4.59609e-07
-6.79437e-05
4.78483e-07
-6.10957e-05
2.87729e-07
-6.38887e-05
2.47464e-07
-7.46012e-05
2.83818e-07
-6.63379e-05
2.61626e-07
-5.69896e-05
2.61584e-07
-5.9414e-05
4.37806e-07
-6.35271e-05
3.45796e-07
-6.64948e-05
3.33416e-07
-6.59501e-05
4.3625e-07
-6.06468e-05
4.23062e-07
-5.86764e-05
3.41699e-07
-5.68827e-05
4.95584e-07
-6.59008e-05
4.2383e-07
-7.82074e-05
2.88803e-07
-6.83511e-05
3.06156e-07
-5.90687e-05
3.28436e-07
-6.16978e-05
4.7763e-07
-6.63787e-05
4.0138e-07
-5.43984e-05
2.50388e-07
-4.81589e-05
3.90272e-07
-5.91951e-05
2.13211e-07
-7.16554e-05
1.8102e-07
-6.03714e-05
2.0154e-07
-5.07706e-05
2.88888e-07
5.36693e-07
0
0
0
0
0
0
0
0
0
0
0
0
0
0
0
0
0
0
0
0
4.61875e-17
-4.10637e-09
-1.61625e-06
-2.59692e-05
-5.67614e-05
-8.17865e-05
-7.67536e-05
-6.89351e-05
-6.82183e-05
-7.78538e-05
-9.4232e-05
-8.92711e-05
-8.06883e-05
-7.18059e-05
-7.06558e-05
-8.5908e-05
-8.55946e-05
-7.73653e-05
-8.11712e-05
-8.10226e-05
-7.51212e-05
-7.00452e-05
-8.07033e-05
-0.000101051
-8.009e-05
-7.26071e-05
-7.22889e-05
-6.60203e-05
-6.72558e-05
-7.52357e-05
-8.30194e-05
-7.46757e-05
-8.0319e-05
-8.42849e-05
-7.37814e-05
-7.72595e-05
-8.32407e-05
-7.27893e-05
-6.46381e-05
-7.78586e-05
-8.90356e-05
-7.13582e-05
-6.19906e-05
-6.90395e-05
-7.7845e-05
-7.54287e-05
-6.95518e-05
-7.27326e-05
-7.41175e-05
-6.66877e-05
-6.62654e-05
-6.58371e-05
-7.42331e-05
-8.78701e-05
-7.11812e-05
-5.84752e-05
-6.21006e-05
-6.46492e-05
-5.98415e-05
-6.88011e-05
-7.39093e-05
-6.26312e-05
-6.69872e-05
-7.41255e-05
-6.40062e-05
-6.68737e-05
-7.63503e-05
-6.36475e-05
-5.99399e-05
-6.08229e-05
-6.70369e-05
-7.23093e-05
-5.86466e-05
-6.11675e-05
-6.01425e-05
-5.23416e-05
-5.55228e-05
-5.60799e-05
-5.97193e-05
)
;

boundaryField
{
    inlet
    {
        type            fixedValue;
        value           nonuniform List<scalar> 10(-5e-05 -5e-05 -5e-05 -5e-05 -5e-05 -5e-05 -5e-05 -5e-05 -5e-05 -5e-05);
    }
    outlet
    {
        type            calculated;
        value           uniform 0;
    }
    walls
    {
        type            fixedValue;
        value           uniform 0;
    }
}


// ************************************************************************* //
