/*--------------------------------*- C++ -*----------------------------------*\
| =========                 |                                                 |
| \\      /  F ield         | foam-extend: Open Source CFD                    |
|  \\    /   O peration     | Version:     5.0                                |
|   \\  /    A nd           | Web:         http://www.foam-extend.org         |
|    \\/     M anipulation  |                                                 |
\*---------------------------------------------------------------------------*/
FoamFile
{
    version     2.0;
    format      ascii;
    class       volScalarField;
    location    "10000";
    object      S.gas;
}
// * * * * * * * * * * * * * * * * * * * * * * * * * * * * * * * * * * * * * //

dimensions      [0 0 0 0 0 0 0];

internalField   nonuniform List<scalar> 
1000
(
0
0
0
0
0
0
0
0
0
0
0
0
0
0
0
0
0
0
0
0
0
0
0
0
0
1.59169e-19
2.13745e-11
9.02227e-07
0.00109544
0.0417792
0.169712
0.279644
0.339272
0.378705
0.402462
0.416536
0.430135
0.440482
0.44892
0.454978
0.461463
0.46752
0.473259
0.479285
0.485574
0.491618
0.497449
0.50361
0.508764
0.514104
0.520451
0.526982
0.53271
0.539304
0.545453
0.550794
0.556663
0.562242
0.569084
0.57617
0.583321
0.590177
0.596943
0.603796
0.610906
0.616766
0.624445
0.631626
0.638734
0.645098
0.651334
0.658906
0.665304
0.672905
0.681121
0.689748
0.698845
0.707114
0.716296
0.724598
0.733594
0.743074
0.751891
0.7597
0.769842
0.779635
0.789717
0.800094
0.810711
0.821558
0.833635
0.846181
0.860247
0.873063
0.884216
0.898592
0.912435
0.930999
0.948132
0.969282
0
0
0
0
0
0
0
0
0
0
0
0
0
0
0
0
0
0
0
0
0
0
0
0
1.20707e-17
3.05619e-08
0.000253594
0.0229063
0.165789
0.346527
0.436865
0.489819
0.511816
0.52396
0.536539
0.544958
0.553441
0.559656
0.56531
0.570585
0.575464
0.579582
0.584046
0.589697
0.594686
0.599851
0.603992
0.608907
0.612786
0.61747
0.62203
0.626809
0.631001
0.635214
0.640788
0.64596
0.649976
0.653799
0.658722
0.664343
0.670258
0.674506
0.679194
0.685007
0.690477
0.694614
0.700926
0.705181
0.711338
0.716108
0.722189
0.72668
0.731667
0.736229
0.74138
0.746016
0.75321
0.760593
0.767631
0.774876
0.782034
0.788822
0.794399
0.802491
0.808763
0.815491
0.823187
0.833136
0.843721
0.851814
0.861077
0.870758
0.878911
0.889331
0.902657
0.914657
0.924657
0.938767
0.950258
0.973214
0
0
0
0
0
0
0
0
0
0
0
0
0
0
0
0
0
0
0
0
0
0
0
0
8.20987e-10
4.82664e-05
0.00936297
0.113472
0.300174
0.405495
0.473456
0.499367
0.522989
0.539855
0.551351
0.560013
0.566305
0.573339
0.578379
0.583389
0.587552
0.591823
0.59746
0.602135
0.605966
0.610655
0.615244
0.620474
0.624958
0.628528
0.633845
0.637202
0.640757
0.645618
0.650521
0.655002
0.659516
0.664044
0.668158
0.672526
0.677618
0.681395
0.686347
0.690635
0.694932
0.699227
0.705062
0.710543
0.715126
0.719264
0.723665
0.729416
0.735048
0.740765
0.747503
0.752969
0.758259
0.763952
0.768805
0.775307
0.779996
0.786393
0.791556
0.799602
0.807199
0.813105
0.820742
0.826999
0.835929
0.845761
0.855207
0.863739
0.874709
0.88594
0.897387
0.91142
0.926845
0.937899
0.949819
0.971882
0
0
0
0
0
0
0
0
0
0
0
0
0
0
0
0
0
0
0
0
0
0
0
0
1.38842e-11
5.85415e-06
0.00353061
0.0771297
0.231618
0.364034
0.44698
0.487985
0.516416
0.527931
0.543597
0.551629
0.559635
0.569081
0.575877
0.583314
0.587847
0.594036
0.600203
0.604908
0.609256
0.613991
0.617494
0.62278
0.627343
0.631414
0.635011
0.638782
0.642976
0.646749
0.650928
0.654462
0.659564
0.664479
0.668756
0.672836
0.676496
0.68129
0.686853
0.692053
0.697554
0.701753
0.705504
0.710462
0.714484
0.720332
0.725805
0.73057
0.736981
0.741641
0.748332
0.754407
0.759756
0.766154
0.771886
0.778965
0.785053
0.792254
0.799654
0.807714
0.816533
0.822672
0.830965
0.837961
0.845599
0.854308
0.861998
0.870891
0.879656
0.889795
0.903372
0.916202
0.92883
0.94044
0.95586
0.970565
0
0
0
0
0
0
0
0
0
0
0
0
0
0
0
0
0
0
0
0
0
0
0
1.25583e-15
6.05556e-08
0.000426602
0.0289139
0.188382
0.363168
0.424428
0.476706
0.503093
0.523067
0.537356
0.545268
0.552636
0.560901
0.568238
0.575246
0.581399
0.588023
0.591892
0.59693
0.601803
0.60656
0.611439
0.615048
0.619293
0.624425
0.629307
0.633961
0.638406
0.641959
0.647086
0.650437
0.653758
0.658422
0.663133
0.667431
0.671301
0.675909
0.680084
0.684311
0.689741
0.693347
0.698131
0.703488
0.708441
0.71243
0.717511
0.723688
0.729472
0.735165
0.739573
0.743994
0.749885
0.754167
0.758455
0.765507
0.770297
0.777715
0.785381
0.791929
0.79793
0.80624
0.812692
0.820893
0.829112
0.839018
0.847685
0.856663
0.866488
0.877428
0.889784
0.902545
0.913306
0.923194
0.935214
0.952989
0.969972
0
0
0
0
0
0
0
0
0
0
0
0
0
0
0
0
0
0
0
0
0
0
0
4.80531e-09
9.71713e-05
0.0155178
0.128406
0.3109
0.402167
0.472388
0.497623
0.522476
0.537033
0.549647
0.560549
0.566371
0.572631
0.578245
0.584564
0.590705
0.594518
0.599457
0.603812
0.60761
0.612747
0.617098
0.621644
0.625016
0.628353
0.631626
0.634855
0.638705
0.642096
0.646851
0.651411
0.65552
0.658983
0.66288
0.66702
0.670222
0.675275
0.678736
0.683642
0.687902
0.693405
0.697764
0.702938
0.708457
0.712063
0.718002
0.723572
0.727638
0.733598
0.739747
0.744948
0.750246
0.756191
0.76199
0.767656
0.773378
0.780531
0.787946
0.794977
0.801573
0.807598
0.814153
0.820086
0.826889
0.835963
0.845982
0.856094
0.864348
0.872361
0.883459
0.893049
0.906771
0.916469
0.926818
0.944056
0.964568
0
0
0
0
0
0
0
0
0
0
0
0
0
0
0
0
0
0
0
0
0
0
1.10922e-13
5.35875e-07
0.00117521
0.0446484
0.194309
0.353751
0.431012
0.465506
0.4975
0.521564
0.533742
0.546464
0.555768
0.564289
0.573382
0.581648
0.588366
0.592553
0.597599
0.601385
0.605781
0.610785
0.616345
0.620177
0.625073
0.629445
0.634667
0.639011
0.644003
0.647499
0.650755
0.654011
0.659013
0.662486
0.667089
0.671055
0.676386
0.680901
0.685282
0.688752
0.692943
0.697425
0.702666
0.706302
0.710664
0.714573
0.719542
0.724092
0.729198
0.735206
0.739192
0.744021
0.74975
0.756446
0.762208
0.767454
0.774714
0.781318
0.787221
0.792625
0.798387
0.806128
0.81227
0.820033
0.828161
0.836606
0.843734
0.852901
0.861681
0.871471
0.879258
0.888285
0.90122
0.910933
0.920455
0.937397
0.951583
0.972344
0
0
0
0
0
0
0
0
0
0
0
0
0
0
0
0
0
0
0
0
0
2.17312e-16
3.52734e-08
0.000338529
0.0304073
0.176574
0.330356
0.411432
0.460961
0.496243
0.51574
0.530326
0.54434
0.556233
0.563236
0.56915
0.575465
0.583554
0.590824
0.597518
0.601981
0.607089
0.610866
0.616643
0.620684
0.625869
0.631217
0.636481
0.640053
0.645213
0.648279
0.652688
0.656425
0.661334
0.66535
0.669105
0.67337
0.678623
0.681788
0.684961
0.689555
0.693931
0.697612
0.703062
0.706624
0.712223
0.716414
0.719895
0.724734
0.730169
0.73493
0.740034
0.744947
0.750536
0.757158
0.7616
0.76823
0.772596
0.777615
0.782088
0.787293
0.794995
0.799806
0.807951
0.816085
0.822309
0.831115
0.839114
0.846129
0.85244
0.858944
0.867639
0.878859
0.889233
0.899197
0.909189
0.918231
0.933401
0.949866
0.965396
0
0
0
0
0
0
0
0
0
0
0
0
0
0
0
0
0
0
0
0
0
3.48066e-13
9.82136e-07
0.00156776
0.0576394
0.251379
0.389419
0.456183
0.500333
0.536942
0.559929
0.570541
0.578264
0.586121
0.592996
0.598213
0.604275
0.611426
0.616587
0.623388
0.628467
0.634535
0.638611
0.643157
0.647003
0.650245
0.654514
0.657861
0.662727
0.665429
0.669877
0.67248
0.67608
0.679935
0.684802
0.687391
0.690728
0.695619
0.698203
0.702602
0.707573
0.712069
0.715595
0.719446
0.723298
0.727458
0.730845
0.733976
0.739116
0.743218
0.74827
0.75285
0.757514
0.76228
0.76746
0.772162
0.777035
0.783293
0.787747
0.792288
0.798317
0.805259
0.811057
0.817461
0.822902
0.829712
0.836872
0.844724
0.853064
0.859127
0.865348
0.873793
0.883224
0.891667
0.900606
0.914439
0.928605
0.938982
0.950022
0.967129
0
0
0
0
0
0
0
0
0
0
0
0
0
0
0
0
0
0
0
0
0
2.06016e-10
2.44961e-05
0.00845608
0.117349
0.306423
0.449501
0.496731
0.546263
0.579371
0.604533
0.617336
0.627263
0.638223
0.648399
0.659851
0.668092
0.672921
0.679799
0.685653
0.690575
0.695566
0.700963
0.706439
0.709071
0.711207
0.716368
0.719574
0.724338
0.728587
0.73279
0.735317
0.738145
0.7419
0.743791
0.746811
0.750143
0.752589
0.754943
0.758847
0.762813
0.764339
0.76673
0.770671
0.774981
0.777494
0.780326
0.783181
0.787101
0.789459
0.793166
0.796937
0.800803
0.804797
0.807193
0.809243
0.814135
0.819206
0.82332
0.82796
0.833616
0.836399
0.841225
0.846697
0.850729
0.854938
0.861582
0.865389
0.870266
0.877311
0.883809
0.891325
0.896633
0.90337
0.913698
0.920496
0.932733
0.944989
0.958255
0.97461
)
;

boundaryField
{
    inlet
    {
        type            calculated;
        value           uniform 1;
    }
    outlet
    {
        type            calculated;
        value           uniform 0;
    }
    walls
    {
        type            calculated;
        value           nonuniform List<scalar> 
2200
(
0
0
0
0
0
0
0
0
0
0
0
0
0
0
0
0
0
0
0
0
0
0
0
0
0
1.59169e-19
2.13745e-11
9.02227e-07
0.00109544
0.0417792
0.169712
0.279644
0.339272
0.378705
0.402462
0.416536
0.430135
0.440482
0.44892
0.454978
0.461463
0.46752
0.473259
0.479285
0.485574
0.491618
0.497449
0.50361
0.508764
0.514104
0.520451
0.526982
0.53271
0.539304
0.545453
0.550794
0.556663
0.562242
0.569084
0.57617
0.583321
0.590177
0.596943
0.603796
0.610906
0.616766
0.624445
0.631626
0.638734
0.645098
0.651334
0.658906
0.665304
0.672905
0.681121
0.689748
0.698845
0.707114
0.716296
0.724598
0.733594
0.743074
0.751891
0.7597
0.769842
0.779635
0.789717
0.800094
0.810711
0.821558
0.833635
0.846181
0.860247
0.873063
0.884216
0.898592
0.912435
0.930999
0.948132
0.969282
0
0
0
0
0
0
0
0
0
0
0
0
0
0
0
0
0
0
0
0
0
0
0
0
1.20707e-17
3.05619e-08
0.000253594
0.0229063
0.165789
0.346527
0.436865
0.489819
0.511816
0.52396
0.536539
0.544958
0.553441
0.559656
0.56531
0.570585
0.575464
0.579582
0.584046
0.589697
0.594686
0.599851
0.603992
0.608907
0.612786
0.61747
0.62203
0.626809
0.631001
0.635214
0.640788
0.64596
0.649976
0.653799
0.658722
0.664343
0.670258
0.674506
0.679194
0.685007
0.690477
0.694614
0.700926
0.705181
0.711338
0.716108
0.722189
0.72668
0.731667
0.736229
0.74138
0.746016
0.75321
0.760593
0.767631
0.774876
0.782034
0.788822
0.794399
0.802491
0.808763
0.815491
0.823187
0.833136
0.843721
0.851814
0.861077
0.870758
0.878911
0.889331
0.902657
0.914657
0.924657
0.938767
0.950258
0.973214
0
0
0
0
0
0
0
0
0
0
0
0
0
0
0
0
0
0
0
0
0
0
0
0
8.20987e-10
4.82664e-05
0.00936297
0.113472
0.300174
0.405495
0.473456
0.499367
0.522989
0.539855
0.551351
0.560013
0.566305
0.573339
0.578379
0.583389
0.587552
0.591823
0.59746
0.602135
0.605966
0.610655
0.615244
0.620474
0.624958
0.628528
0.633845
0.637202
0.640757
0.645618
0.650521
0.655002
0.659516
0.664044
0.668158
0.672526
0.677618
0.681395
0.686347
0.690635
0.694932
0.699227
0.705062
0.710543
0.715126
0.719264
0.723665
0.729416
0.735048
0.740765
0.747503
0.752969
0.758259
0.763952
0.768805
0.775307
0.779996
0.786393
0.791556
0.799602
0.807199
0.813105
0.820742
0.826999
0.835929
0.845761
0.855207
0.863739
0.874709
0.88594
0.897387
0.91142
0.926845
0.937899
0.949819
0.971882
0
0
0
0
0
0
0
0
0
0
0
0
0
0
0
0
0
0
0
0
0
0
0
0
1.38842e-11
5.85415e-06
0.00353061
0.0771297
0.231618
0.364034
0.44698
0.487985
0.516416
0.527931
0.543597
0.551629
0.559635
0.569081
0.575877
0.583314
0.587847
0.594036
0.600203
0.604908
0.609256
0.613991
0.617494
0.62278
0.627343
0.631414
0.635011
0.638782
0.642976
0.646749
0.650928
0.654462
0.659564
0.664479
0.668756
0.672836
0.676496
0.68129
0.686853
0.692053
0.697554
0.701753
0.705504
0.710462
0.714484
0.720332
0.725805
0.73057
0.736981
0.741641
0.748332
0.754407
0.759756
0.766154
0.771886
0.778965
0.785053
0.792254
0.799654
0.807714
0.816533
0.822672
0.830965
0.837961
0.845599
0.854308
0.861998
0.870891
0.879656
0.889795
0.903372
0.916202
0.92883
0.94044
0.95586
0.970565
0
0
0
0
0
0
0
0
0
0
0
0
0
0
0
0
0
0
0
0
0
0
0
1.25583e-15
6.05556e-08
0.000426602
0.0289139
0.188382
0.363168
0.424428
0.476706
0.503093
0.523067
0.537356
0.545268
0.552636
0.560901
0.568238
0.575246
0.581399
0.588023
0.591892
0.59693
0.601803
0.60656
0.611439
0.615048
0.619293
0.624425
0.629307
0.633961
0.638406
0.641959
0.647086
0.650437
0.653758
0.658422
0.663133
0.667431
0.671301
0.675909
0.680084
0.684311
0.689741
0.693347
0.698131
0.703488
0.708441
0.71243
0.717511
0.723688
0.729472
0.735165
0.739573
0.743994
0.749885
0.754167
0.758455
0.765507
0.770297
0.777715
0.785381
0.791929
0.79793
0.80624
0.812692
0.820893
0.829112
0.839018
0.847685
0.856663
0.866488
0.877428
0.889784
0.902545
0.913306
0.923194
0.935214
0.952989
0.969972
0
0
0
0
0
0
0
0
0
0
0
0
0
0
0
0
0
0
0
0
0
0
0
4.80531e-09
9.71713e-05
0.0155178
0.128406
0.3109
0.402167
0.472388
0.497623
0.522476
0.537033
0.549647
0.560549
0.566371
0.572631
0.578245
0.584564
0.590705
0.594518
0.599457
0.603812
0.60761
0.612747
0.617098
0.621644
0.625016
0.628353
0.631626
0.634855
0.638705
0.642096
0.646851
0.651411
0.65552
0.658983
0.66288
0.66702
0.670222
0.675275
0.678736
0.683642
0.687902
0.693405
0.697764
0.702938
0.708457
0.712063
0.718002
0.723572
0.727638
0.733598
0.739747
0.744948
0.750246
0.756191
0.76199
0.767656
0.773378
0.780531
0.787946
0.794977
0.801573
0.807598
0.814153
0.820086
0.826889
0.835963
0.845982
0.856094
0.864348
0.872361
0.883459
0.893049
0.906771
0.916469
0.926818
0.944056
0.964568
0
0
0
0
0
0
0
0
0
0
0
0
0
0
0
0
0
0
0
0
0
0
1.10922e-13
5.35875e-07
0.00117521
0.0446484
0.194309
0.353751
0.431012
0.465506
0.4975
0.521564
0.533742
0.546464
0.555768
0.564289
0.573382
0.581648
0.588366
0.592553
0.597599
0.601385
0.605781
0.610785
0.616345
0.620177
0.625073
0.629445
0.634667
0.639011
0.644003
0.647499
0.650755
0.654011
0.659013
0.662486
0.667089
0.671055
0.676386
0.680901
0.685282
0.688752
0.692943
0.697425
0.702666
0.706302
0.710664
0.714573
0.719542
0.724092
0.729198
0.735206
0.739192
0.744021
0.74975
0.756446
0.762208
0.767454
0.774714
0.781318
0.787221
0.792625
0.798387
0.806128
0.81227
0.820033
0.828161
0.836606
0.843734
0.852901
0.861681
0.871471
0.879258
0.888285
0.90122
0.910933
0.920455
0.937397
0.951583
0.972344
0
0
0
0
0
0
0
0
0
0
0
0
0
0
0
0
0
0
0
0
0
2.17312e-16
3.52734e-08
0.000338529
0.0304073
0.176574
0.330356
0.411432
0.460961
0.496243
0.51574
0.530326
0.54434
0.556233
0.563236
0.56915
0.575465
0.583554
0.590824
0.597518
0.601981
0.607089
0.610866
0.616643
0.620684
0.625869
0.631217
0.636481
0.640053
0.645213
0.648279
0.652688
0.656425
0.661334
0.66535
0.669105
0.67337
0.678623
0.681788
0.684961
0.689555
0.693931
0.697612
0.703062
0.706624
0.712223
0.716414
0.719895
0.724734
0.730169
0.73493
0.740034
0.744947
0.750536
0.757158
0.7616
0.76823
0.772596
0.777615
0.782088
0.787293
0.794995
0.799806
0.807951
0.816085
0.822309
0.831115
0.839114
0.846129
0.85244
0.858944
0.867639
0.878859
0.889233
0.899197
0.909189
0.918231
0.933401
0.949866
0.965396
0
0
0
0
0
0
0
0
0
0
0
0
0
0
0
0
0
0
0
0
0
3.48066e-13
9.82136e-07
0.00156776
0.0576394
0.251379
0.389419
0.456183
0.500333
0.536942
0.559929
0.570541
0.578264
0.586121
0.592996
0.598213
0.604275
0.611426
0.616587
0.623388
0.628467
0.634535
0.638611
0.643157
0.647003
0.650245
0.654514
0.657861
0.662727
0.665429
0.669877
0.67248
0.67608
0.679935
0.684802
0.687391
0.690728
0.695619
0.698203
0.702602
0.707573
0.712069
0.715595
0.719446
0.723298
0.727458
0.730845
0.733976
0.739116
0.743218
0.74827
0.75285
0.757514
0.76228
0.76746
0.772162
0.777035
0.783293
0.787747
0.792288
0.798317
0.805259
0.811057
0.817461
0.822902
0.829712
0.836872
0.844724
0.853064
0.859127
0.865348
0.873793
0.883224
0.891667
0.900606
0.914439
0.928605
0.938982
0.950022
0.967129
0
0
0
0
0
0
0
0
0
0
0
0
0
0
0
0
0
0
0
0
0
2.06016e-10
2.44961e-05
0.00845608
0.117349
0.306423
0.449501
0.496731
0.546263
0.579371
0.604533
0.617336
0.627263
0.638223
0.648399
0.659851
0.668092
0.672921
0.679799
0.685653
0.690575
0.695566
0.700963
0.706439
0.709071
0.711207
0.716368
0.719574
0.724338
0.728587
0.73279
0.735317
0.738145
0.7419
0.743791
0.746811
0.750143
0.752589
0.754943
0.758847
0.762813
0.764339
0.76673
0.770671
0.774981
0.777494
0.780326
0.783181
0.787101
0.789459
0.793166
0.796937
0.800803
0.804797
0.807193
0.809243
0.814135
0.819206
0.82332
0.82796
0.833616
0.836399
0.841225
0.846697
0.850729
0.854938
0.861582
0.865389
0.870266
0.877311
0.883809
0.891325
0.896633
0.90337
0.913698
0.920496
0.932733
0.944989
0.958255
0.97461
0
0
0
0
0
0
0
0
0
0
0
0
0
0
0
0
0
0
0
0
0
0
0
0
0
1.59169e-19
2.13745e-11
9.02227e-07
0.00109544
0.0417792
0.169712
0.279644
0.339272
0.378705
0.402462
0.416536
0.430135
0.440482
0.44892
0.454978
0.461463
0.46752
0.473259
0.479285
0.485574
0.491618
0.497449
0.50361
0.508764
0.514104
0.520451
0.526982
0.53271
0.539304
0.545453
0.550794
0.556663
0.562242
0.569084
0.57617
0.583321
0.590177
0.596943
0.603796
0.610906
0.616766
0.624445
0.631626
0.638734
0.645098
0.651334
0.658906
0.665304
0.672905
0.681121
0.689748
0.698845
0.707114
0.716296
0.724598
0.733594
0.743074
0.751891
0.7597
0.769842
0.779635
0.789717
0.800094
0.810711
0.821558
0.833635
0.846181
0.860247
0.873063
0.884216
0.898592
0.912435
0.930999
0.948132
0.969282
0
0
0
0
0
0
0
0
0
0
0
0
0
0
0
0
0
0
0
0
0
0
0
0
1.20707e-17
3.05619e-08
0.000253594
0.0229063
0.165789
0.346527
0.436865
0.489819
0.511816
0.52396
0.536539
0.544958
0.553441
0.559656
0.56531
0.570585
0.575464
0.579582
0.584046
0.589697
0.594686
0.599851
0.603992
0.608907
0.612786
0.61747
0.62203
0.626809
0.631001
0.635214
0.640788
0.64596
0.649976
0.653799
0.658722
0.664343
0.670258
0.674506
0.679194
0.685007
0.690477
0.694614
0.700926
0.705181
0.711338
0.716108
0.722189
0.72668
0.731667
0.736229
0.74138
0.746016
0.75321
0.760593
0.767631
0.774876
0.782034
0.788822
0.794399
0.802491
0.808763
0.815491
0.823187
0.833136
0.843721
0.851814
0.861077
0.870758
0.878911
0.889331
0.902657
0.914657
0.924657
0.938767
0.950258
0.973214
0
0
0
0
0
0
0
0
0
0
0
0
0
0
0
0
0
0
0
0
0
0
0
0
8.20987e-10
4.82664e-05
0.00936297
0.113472
0.300174
0.405495
0.473456
0.499367
0.522989
0.539855
0.551351
0.560013
0.566305
0.573339
0.578379
0.583389
0.587552
0.591823
0.59746
0.602135
0.605966
0.610655
0.615244
0.620474
0.624958
0.628528
0.633845
0.637202
0.640757
0.645618
0.650521
0.655002
0.659516
0.664044
0.668158
0.672526
0.677618
0.681395
0.686347
0.690635
0.694932
0.699227
0.705062
0.710543
0.715126
0.719264
0.723665
0.729416
0.735048
0.740765
0.747503
0.752969
0.758259
0.763952
0.768805
0.775307
0.779996
0.786393
0.791556
0.799602
0.807199
0.813105
0.820742
0.826999
0.835929
0.845761
0.855207
0.863739
0.874709
0.88594
0.897387
0.91142
0.926845
0.937899
0.949819
0.971882
0
0
0
0
0
0
0
0
0
0
0
0
0
0
0
0
0
0
0
0
0
0
0
0
1.38842e-11
5.85415e-06
0.00353061
0.0771297
0.231618
0.364034
0.44698
0.487985
0.516416
0.527931
0.543597
0.551629
0.559635
0.569081
0.575877
0.583314
0.587847
0.594036
0.600203
0.604908
0.609256
0.613991
0.617494
0.62278
0.627343
0.631414
0.635011
0.638782
0.642976
0.646749
0.650928
0.654462
0.659564
0.664479
0.668756
0.672836
0.676496
0.68129
0.686853
0.692053
0.697554
0.701753
0.705504
0.710462
0.714484
0.720332
0.725805
0.73057
0.736981
0.741641
0.748332
0.754407
0.759756
0.766154
0.771886
0.778965
0.785053
0.792254
0.799654
0.807714
0.816533
0.822672
0.830965
0.837961
0.845599
0.854308
0.861998
0.870891
0.879656
0.889795
0.903372
0.916202
0.92883
0.94044
0.95586
0.970565
0
0
0
0
0
0
0
0
0
0
0
0
0
0
0
0
0
0
0
0
0
0
0
1.25583e-15
6.05556e-08
0.000426602
0.0289139
0.188382
0.363168
0.424428
0.476706
0.503093
0.523067
0.537356
0.545268
0.552636
0.560901
0.568238
0.575246
0.581399
0.588023
0.591892
0.59693
0.601803
0.60656
0.611439
0.615048
0.619293
0.624425
0.629307
0.633961
0.638406
0.641959
0.647086
0.650437
0.653758
0.658422
0.663133
0.667431
0.671301
0.675909
0.680084
0.684311
0.689741
0.693347
0.698131
0.703488
0.708441
0.71243
0.717511
0.723688
0.729472
0.735165
0.739573
0.743994
0.749885
0.754167
0.758455
0.765507
0.770297
0.777715
0.785381
0.791929
0.79793
0.80624
0.812692
0.820893
0.829112
0.839018
0.847685
0.856663
0.866488
0.877428
0.889784
0.902545
0.913306
0.923194
0.935214
0.952989
0.969972
0
0
0
0
0
0
0
0
0
0
0
0
0
0
0
0
0
0
0
0
0
0
0
4.80531e-09
9.71713e-05
0.0155178
0.128406
0.3109
0.402167
0.472388
0.497623
0.522476
0.537033
0.549647
0.560549
0.566371
0.572631
0.578245
0.584564
0.590705
0.594518
0.599457
0.603812
0.60761
0.612747
0.617098
0.621644
0.625016
0.628353
0.631626
0.634855
0.638705
0.642096
0.646851
0.651411
0.65552
0.658983
0.66288
0.66702
0.670222
0.675275
0.678736
0.683642
0.687902
0.693405
0.697764
0.702938
0.708457
0.712063
0.718002
0.723572
0.727638
0.733598
0.739747
0.744948
0.750246
0.756191
0.76199
0.767656
0.773378
0.780531
0.787946
0.794977
0.801573
0.807598
0.814153
0.820086
0.826889
0.835963
0.845982
0.856094
0.864348
0.872361
0.883459
0.893049
0.906771
0.916469
0.926818
0.944056
0.964568
0
0
0
0
0
0
0
0
0
0
0
0
0
0
0
0
0
0
0
0
0
0
1.10922e-13
5.35875e-07
0.00117521
0.0446484
0.194309
0.353751
0.431012
0.465506
0.4975
0.521564
0.533742
0.546464
0.555768
0.564289
0.573382
0.581648
0.588366
0.592553
0.597599
0.601385
0.605781
0.610785
0.616345
0.620177
0.625073
0.629445
0.634667
0.639011
0.644003
0.647499
0.650755
0.654011
0.659013
0.662486
0.667089
0.671055
0.676386
0.680901
0.685282
0.688752
0.692943
0.697425
0.702666
0.706302
0.710664
0.714573
0.719542
0.724092
0.729198
0.735206
0.739192
0.744021
0.74975
0.756446
0.762208
0.767454
0.774714
0.781318
0.787221
0.792625
0.798387
0.806128
0.81227
0.820033
0.828161
0.836606
0.843734
0.852901
0.861681
0.871471
0.879258
0.888285
0.90122
0.910933
0.920455
0.937397
0.951583
0.972344
0
0
0
0
0
0
0
0
0
0
0
0
0
0
0
0
0
0
0
0
0
2.17312e-16
3.52734e-08
0.000338529
0.0304073
0.176574
0.330356
0.411432
0.460961
0.496243
0.51574
0.530326
0.54434
0.556233
0.563236
0.56915
0.575465
0.583554
0.590824
0.597518
0.601981
0.607089
0.610866
0.616643
0.620684
0.625869
0.631217
0.636481
0.640053
0.645213
0.648279
0.652688
0.656425
0.661334
0.66535
0.669105
0.67337
0.678623
0.681788
0.684961
0.689555
0.693931
0.697612
0.703062
0.706624
0.712223
0.716414
0.719895
0.724734
0.730169
0.73493
0.740034
0.744947
0.750536
0.757158
0.7616
0.76823
0.772596
0.777615
0.782088
0.787293
0.794995
0.799806
0.807951
0.816085
0.822309
0.831115
0.839114
0.846129
0.85244
0.858944
0.867639
0.878859
0.889233
0.899197
0.909189
0.918231
0.933401
0.949866
0.965396
0
0
0
0
0
0
0
0
0
0
0
0
0
0
0
0
0
0
0
0
0
3.48066e-13
9.82136e-07
0.00156776
0.0576394
0.251379
0.389419
0.456183
0.500333
0.536942
0.559929
0.570541
0.578264
0.586121
0.592996
0.598213
0.604275
0.611426
0.616587
0.623388
0.628467
0.634535
0.638611
0.643157
0.647003
0.650245
0.654514
0.657861
0.662727
0.665429
0.669877
0.67248
0.67608
0.679935
0.684802
0.687391
0.690728
0.695619
0.698203
0.702602
0.707573
0.712069
0.715595
0.719446
0.723298
0.727458
0.730845
0.733976
0.739116
0.743218
0.74827
0.75285
0.757514
0.76228
0.76746
0.772162
0.777035
0.783293
0.787747
0.792288
0.798317
0.805259
0.811057
0.817461
0.822902
0.829712
0.836872
0.844724
0.853064
0.859127
0.865348
0.873793
0.883224
0.891667
0.900606
0.914439
0.928605
0.938982
0.950022
0.967129
0
0
0
0
0
0
0
0
0
0
0
0
0
0
0
0
0
0
0
0
0
2.06016e-10
2.44961e-05
0.00845608
0.117349
0.306423
0.449501
0.496731
0.546263
0.579371
0.604533
0.617336
0.627263
0.638223
0.648399
0.659851
0.668092
0.672921
0.679799
0.685653
0.690575
0.695566
0.700963
0.706439
0.709071
0.711207
0.716368
0.719574
0.724338
0.728587
0.73279
0.735317
0.738145
0.7419
0.743791
0.746811
0.750143
0.752589
0.754943
0.758847
0.762813
0.764339
0.76673
0.770671
0.774981
0.777494
0.780326
0.783181
0.787101
0.789459
0.793166
0.796937
0.800803
0.804797
0.807193
0.809243
0.814135
0.819206
0.82332
0.82796
0.833616
0.836399
0.841225
0.846697
0.850729
0.854938
0.861582
0.865389
0.870266
0.877311
0.883809
0.891325
0.896633
0.90337
0.913698
0.920496
0.932733
0.944989
0.958255
0.97461
0
0
0
0
0
0
0
0
0
0
0
0
0
0
0
0
0
0
0
0
0
0
0
0
0
1.59169e-19
2.13745e-11
9.02227e-07
0.00109544
0.0417792
0.169712
0.279644
0.339272
0.378705
0.402462
0.416536
0.430135
0.440482
0.44892
0.454978
0.461463
0.46752
0.473259
0.479285
0.485574
0.491618
0.497449
0.50361
0.508764
0.514104
0.520451
0.526982
0.53271
0.539304
0.545453
0.550794
0.556663
0.562242
0.569084
0.57617
0.583321
0.590177
0.596943
0.603796
0.610906
0.616766
0.624445
0.631626
0.638734
0.645098
0.651334
0.658906
0.665304
0.672905
0.681121
0.689748
0.698845
0.707114
0.716296
0.724598
0.733594
0.743074
0.751891
0.7597
0.769842
0.779635
0.789717
0.800094
0.810711
0.821558
0.833635
0.846181
0.860247
0.873063
0.884216
0.898592
0.912435
0.930999
0.948132
0.969282
0
0
0
0
0
0
0
0
0
0
0
0
0
0
0
0
0
0
0
0
0
2.06016e-10
2.44961e-05
0.00845608
0.117349
0.306423
0.449501
0.496731
0.546263
0.579371
0.604533
0.617336
0.627263
0.638223
0.648399
0.659851
0.668092
0.672921
0.679799
0.685653
0.690575
0.695566
0.700963
0.706439
0.709071
0.711207
0.716368
0.719574
0.724338
0.728587
0.73279
0.735317
0.738145
0.7419
0.743791
0.746811
0.750143
0.752589
0.754943
0.758847
0.762813
0.764339
0.76673
0.770671
0.774981
0.777494
0.780326
0.783181
0.787101
0.789459
0.793166
0.796937
0.800803
0.804797
0.807193
0.809243
0.814135
0.819206
0.82332
0.82796
0.833616
0.836399
0.841225
0.846697
0.850729
0.854938
0.861582
0.865389
0.870266
0.877311
0.883809
0.891325
0.896633
0.90337
0.913698
0.920496
0.932733
0.944989
0.958255
0.97461
)
;
    }
}


// ************************************************************************* //
