/*--------------------------------*- C++ -*----------------------------------*\
| =========                 |                                                 |
| \\      /  F ield         | foam-extend: Open Source CFD                    |
|  \\    /   O peration     | Version:     5.0                                |
|   \\  /    A nd           | Web:         http://www.foam-extend.org         |
|    \\/     M anipulation  |                                                 |
\*---------------------------------------------------------------------------*/
FoamFile
{
    version     2.0;
    format      ascii;
    class       volScalarField;
    location    "10000";
    object      S.oil;
}
// * * * * * * * * * * * * * * * * * * * * * * * * * * * * * * * * * * * * * //

dimensions      [0 0 0 0 0 0 0];

internalField   nonuniform List<scalar> 
1000
(
1
1
1
1
1
1
1
1
1
1
1
1
1
1
1
1
1
1
1
1
1
1
1
1
1
1
1
0.999999
0.998905
0.958221
0.830288
0.720356
0.660728
0.621295
0.597538
0.583464
0.569865
0.559518
0.55108
0.545022
0.538537
0.53248
0.526741
0.520715
0.514426
0.508382
0.502551
0.49639
0.491236
0.485896
0.479549
0.473018
0.46729
0.460696
0.454547
0.449206
0.443337
0.437758
0.430916
0.42383
0.416679
0.409823
0.403057
0.396204
0.389094
0.383234
0.375555
0.368374
0.361266
0.354902
0.348666
0.341094
0.334696
0.327095
0.318879
0.310252
0.301155
0.292886
0.283704
0.275402
0.266406
0.256926
0.248109
0.2403
0.230158
0.220365
0.210283
0.199906
0.189289
0.178442
0.166365
0.153819
0.139753
0.126937
0.115784
0.101408
0.0875652
0.0690011
0.0518675
0.0307183
1
1
1
1
1
1
1
1
1
1
1
1
1
1
1
1
1
1
1
1
1
1
1
1
1
1
0.999746
0.977094
0.834211
0.653473
0.563135
0.510181
0.488184
0.47604
0.463461
0.455042
0.446559
0.440344
0.43469
0.429415
0.424536
0.420418
0.415954
0.410303
0.405314
0.400149
0.396008
0.391093
0.387214
0.38253
0.37797
0.373191
0.368999
0.364786
0.359212
0.35404
0.350024
0.346201
0.341278
0.335657
0.329742
0.325494
0.320806
0.314993
0.309523
0.305386
0.299074
0.294819
0.288662
0.283892
0.277811
0.27332
0.268333
0.263771
0.25862
0.253984
0.24679
0.239407
0.232369
0.225124
0.217966
0.211178
0.205601
0.197509
0.191237
0.184509
0.176813
0.166864
0.156279
0.148186
0.138923
0.129242
0.121089
0.110669
0.0973426
0.0853427
0.0753429
0.0612326
0.0497419
0.0267857
1
1
1
1
1
1
1
1
1
1
1
1
1
1
1
1
1
1
1
1
1
1
1
1
1
0.999952
0.990637
0.886528
0.699826
0.594505
0.526544
0.500633
0.477011
0.460145
0.448649
0.439987
0.433695
0.426661
0.421621
0.416611
0.412448
0.408177
0.40254
0.397865
0.394034
0.389345
0.384756
0.379526
0.375042
0.371472
0.366155
0.362798
0.359243
0.354382
0.349479
0.344998
0.340484
0.335956
0.331842
0.327474
0.322382
0.318605
0.313653
0.309365
0.305068
0.300773
0.294938
0.289457
0.284874
0.280736
0.276335
0.270584
0.264952
0.259235
0.252497
0.247031
0.241741
0.236048
0.231195
0.224693
0.220004
0.213607
0.208444
0.200398
0.192801
0.186895
0.179258
0.173001
0.164071
0.154239
0.144793
0.136261
0.125291
0.11406
0.102613
0.0885802
0.0731546
0.0621012
0.0501807
0.0281178
1
1
1
1
1
1
1
1
1
1
1
1
1
1
1
1
1
1
1
1
1
1
1
1
1
0.999994
0.996469
0.92287
0.768382
0.635966
0.55302
0.512015
0.483584
0.472069
0.456403
0.448371
0.440365
0.430919
0.424123
0.416686
0.412153
0.405964
0.399797
0.395092
0.390744
0.386009
0.382506
0.37722
0.372657
0.368586
0.364989
0.361218
0.357024
0.353251
0.349072
0.345538
0.340436
0.335521
0.331244
0.327164
0.323504
0.31871
0.313147
0.307947
0.302446
0.298247
0.294496
0.289538
0.285516
0.279668
0.274195
0.26943
0.263019
0.258359
0.251668
0.245593
0.240244
0.233846
0.228114
0.221035
0.214947
0.207746
0.200346
0.192286
0.183467
0.177328
0.169035
0.162039
0.154401
0.145692
0.138002
0.129109
0.120344
0.110205
0.0966285
0.0837979
0.0711701
0.0595602
0.0441397
0.0294355
1
1
1
1
1
1
1
1
1
1
1
1
1
1
1
1
1
1
1
1
1
1
1
1
1
0.999573
0.971086
0.811618
0.636832
0.575572
0.523294
0.496907
0.476933
0.462644
0.454732
0.447364
0.439099
0.431762
0.424754
0.418601
0.411977
0.408108
0.40307
0.398197
0.39344
0.388561
0.384952
0.380707
0.375575
0.370693
0.366039
0.361594
0.358041
0.352914
0.349563
0.346242
0.341578
0.336867
0.332569
0.328699
0.324091
0.319916
0.315689
0.310259
0.306653
0.301869
0.296512
0.291559
0.28757
0.282489
0.276312
0.270528
0.264835
0.260427
0.256006
0.250115
0.245833
0.241545
0.234493
0.229703
0.222285
0.214619
0.208071
0.20207
0.19376
0.187308
0.179107
0.170888
0.160982
0.152315
0.143337
0.133512
0.122572
0.110216
0.0974553
0.0866936
0.076806
0.0647862
0.0470109
0.0300279
1
1
1
1
1
1
1
1
1
1
1
1
1
1
1
1
1
1
1
1
1
1
1
1
0.999903
0.984482
0.871594
0.6891
0.597833
0.527612
0.502377
0.477524
0.462967
0.450353
0.439451
0.433629
0.427369
0.421755
0.415436
0.409295
0.405482
0.400543
0.396188
0.39239
0.387253
0.382902
0.378356
0.374984
0.371647
0.368374
0.365145
0.361295
0.357904
0.353149
0.348589
0.34448
0.341017
0.33712
0.33298
0.329778
0.324725
0.321264
0.316358
0.312098
0.306595
0.302236
0.297062
0.291543
0.287937
0.281998
0.276428
0.272362
0.266402
0.260253
0.255052
0.249754
0.243809
0.23801
0.232344
0.226622
0.219469
0.212054
0.205023
0.198427
0.192402
0.185847
0.179914
0.173111
0.164037
0.154018
0.143906
0.135652
0.127639
0.116541
0.106951
0.0932293
0.0835307
0.0731819
0.0559442
0.0354315
1
1
1
1
1
1
1
1
1
1
1
1
1
1
1
1
1
1
1
1
1
1
1
0.999999
0.998825
0.955352
0.805691
0.646249
0.568988
0.534494
0.5025
0.478436
0.466258
0.453536
0.444232
0.435711
0.426618
0.418352
0.411634
0.407447
0.402401
0.398615
0.394219
0.389215
0.383655
0.379823
0.374927
0.370555
0.365333
0.360989
0.355997
0.352501
0.349245
0.345989
0.340987
0.337514
0.332911
0.328945
0.323614
0.319099
0.314718
0.311248
0.307057
0.302575
0.297334
0.293698
0.289336
0.285427
0.280458
0.275908
0.270802
0.264794
0.260808
0.255979
0.25025
0.243554
0.237792
0.232546
0.225286
0.218682
0.212779
0.207375
0.201613
0.193872
0.18773
0.179967
0.171839
0.163394
0.156266
0.147099
0.138319
0.128529
0.120742
0.111715
0.0987802
0.0890672
0.0795446
0.0626028
0.0484165
0.0276559
1
1
1
1
1
1
1
1
1
1
1
1
1
1
1
1
1
1
1
1
1
1
1
0.999661
0.969593
0.823426
0.669644
0.588568
0.539039
0.503757
0.48426
0.469674
0.45566
0.443767
0.436764
0.43085
0.424535
0.416446
0.409176
0.402482
0.398019
0.392911
0.389134
0.383357
0.379316
0.374131
0.368783
0.363519
0.359947
0.354787
0.351721
0.347312
0.343575
0.338666
0.33465
0.330895
0.32663
0.321377
0.318212
0.315039
0.310445
0.306069
0.302388
0.296938
0.293376
0.287777
0.283586
0.280105
0.275266
0.269831
0.26507
0.259966
0.255053
0.249464
0.242842
0.2384
0.23177
0.227404
0.222385
0.217912
0.212707
0.205005
0.200194
0.192049
0.183915
0.177691
0.168885
0.160886
0.153871
0.14756
0.141056
0.132361
0.121141
0.110767
0.100803
0.0908113
0.0817686
0.0665992
0.050134
0.0346044
1
1
1
1
1
1
1
1
1
1
1
1
1
1
1
1
1
1
1
1
1
1
0.999999
0.998432
0.942361
0.748621
0.610581
0.543817
0.499667
0.463058
0.440071
0.429459
0.421736
0.413879
0.407004
0.401787
0.395725
0.388574
0.383413
0.376612
0.371533
0.365465
0.361389
0.356843
0.352997
0.349755
0.345486
0.342139
0.337273
0.334571
0.330123
0.32752
0.32392
0.320065
0.315198
0.312609
0.309272
0.304381
0.301797
0.297398
0.292427
0.287931
0.284405
0.280554
0.276702
0.272542
0.269155
0.266024
0.260884
0.256782
0.25173
0.24715
0.242486
0.23772
0.23254
0.227838
0.222965
0.216707
0.212253
0.207712
0.201683
0.194741
0.188943
0.182539
0.177098
0.170288
0.163128
0.155276
0.146936
0.140873
0.134652
0.126207
0.116776
0.108333
0.0993935
0.0855605
0.071395
0.0610177
0.0499782
0.0328706
1
1
1
1
1
1
1
1
1
1
1
1
1
1
1
1
1
1
1
1
1
1
0.999976
0.991544
0.882651
0.693577
0.550499
0.503269
0.453737
0.420629
0.395467
0.382664
0.372737
0.361777
0.351601
0.340149
0.331908
0.327079
0.320201
0.314347
0.309425
0.304434
0.299037
0.293561
0.290929
0.288793
0.283632
0.280426
0.275662
0.271413
0.26721
0.264683
0.261855
0.2581
0.256209
0.253189
0.249857
0.247411
0.245057
0.241153
0.237187
0.235661
0.23327
0.229329
0.225019
0.222506
0.219674
0.216819
0.212899
0.210541
0.206834
0.203063
0.199197
0.195203
0.192807
0.190757
0.185865
0.180794
0.17668
0.17204
0.166384
0.163601
0.158775
0.153303
0.149271
0.145062
0.138418
0.134611
0.129734
0.122689
0.116191
0.108675
0.103367
0.09663
0.0863018
0.0795036
0.0672667
0.055011
0.0417453
0.0253898
)
;

boundaryField
{
    inlet
    {
        type            calculated;
        value           uniform 0;
    }
    outlet
    {
        type            calculated;
        value           uniform 1;
    }
    walls
    {
        type            calculated;
        value           nonuniform List<scalar> 
2200
(
1
1
1
1
1
1
1
1
1
1
1
1
1
1
1
1
1
1
1
1
1
1
1
1
1
1
1
0.999999
0.998905
0.958221
0.830288
0.720356
0.660728
0.621295
0.597538
0.583464
0.569865
0.559518
0.55108
0.545022
0.538537
0.53248
0.526741
0.520715
0.514426
0.508382
0.502551
0.49639
0.491236
0.485896
0.479549
0.473018
0.46729
0.460696
0.454547
0.449206
0.443337
0.437758
0.430916
0.42383
0.416679
0.409823
0.403057
0.396204
0.389094
0.383234
0.375555
0.368374
0.361266
0.354902
0.348666
0.341094
0.334696
0.327095
0.318879
0.310252
0.301155
0.292886
0.283704
0.275402
0.266406
0.256926
0.248109
0.2403
0.230158
0.220365
0.210283
0.199906
0.189289
0.178442
0.166365
0.153819
0.139753
0.126937
0.115784
0.101408
0.0875652
0.0690011
0.0518675
0.0307183
1
1
1
1
1
1
1
1
1
1
1
1
1
1
1
1
1
1
1
1
1
1
1
1
1
1
0.999746
0.977094
0.834211
0.653473
0.563135
0.510181
0.488184
0.47604
0.463461
0.455042
0.446559
0.440344
0.43469
0.429415
0.424536
0.420418
0.415954
0.410303
0.405314
0.400149
0.396008
0.391093
0.387214
0.38253
0.37797
0.373191
0.368999
0.364786
0.359212
0.35404
0.350024
0.346201
0.341278
0.335657
0.329742
0.325494
0.320806
0.314993
0.309523
0.305386
0.299074
0.294819
0.288662
0.283892
0.277811
0.27332
0.268333
0.263771
0.25862
0.253984
0.24679
0.239407
0.232369
0.225124
0.217966
0.211178
0.205601
0.197509
0.191237
0.184509
0.176813
0.166864
0.156279
0.148186
0.138923
0.129242
0.121089
0.110669
0.0973426
0.0853427
0.0753429
0.0612326
0.0497419
0.0267857
1
1
1
1
1
1
1
1
1
1
1
1
1
1
1
1
1
1
1
1
1
1
1
1
1
0.999952
0.990637
0.886528
0.699826
0.594505
0.526544
0.500633
0.477011
0.460145
0.448649
0.439987
0.433695
0.426661
0.421621
0.416611
0.412448
0.408177
0.40254
0.397865
0.394034
0.389345
0.384756
0.379526
0.375042
0.371472
0.366155
0.362798
0.359243
0.354382
0.349479
0.344998
0.340484
0.335956
0.331842
0.327474
0.322382
0.318605
0.313653
0.309365
0.305068
0.300773
0.294938
0.289457
0.284874
0.280736
0.276335
0.270584
0.264952
0.259235
0.252497
0.247031
0.241741
0.236048
0.231195
0.224693
0.220004
0.213607
0.208444
0.200398
0.192801
0.186895
0.179258
0.173001
0.164071
0.154239
0.144793
0.136261
0.125291
0.11406
0.102613
0.0885802
0.0731546
0.0621012
0.0501807
0.0281178
1
1
1
1
1
1
1
1
1
1
1
1
1
1
1
1
1
1
1
1
1
1
1
1
1
0.999994
0.996469
0.92287
0.768382
0.635966
0.55302
0.512015
0.483584
0.472069
0.456403
0.448371
0.440365
0.430919
0.424123
0.416686
0.412153
0.405964
0.399797
0.395092
0.390744
0.386009
0.382506
0.37722
0.372657
0.368586
0.364989
0.361218
0.357024
0.353251
0.349072
0.345538
0.340436
0.335521
0.331244
0.327164
0.323504
0.31871
0.313147
0.307947
0.302446
0.298247
0.294496
0.289538
0.285516
0.279668
0.274195
0.26943
0.263019
0.258359
0.251668
0.245593
0.240244
0.233846
0.228114
0.221035
0.214947
0.207746
0.200346
0.192286
0.183467
0.177328
0.169035
0.162039
0.154401
0.145692
0.138002
0.129109
0.120344
0.110205
0.0966285
0.0837979
0.0711701
0.0595602
0.0441397
0.0294355
1
1
1
1
1
1
1
1
1
1
1
1
1
1
1
1
1
1
1
1
1
1
1
1
1
0.999573
0.971086
0.811618
0.636832
0.575572
0.523294
0.496907
0.476933
0.462644
0.454732
0.447364
0.439099
0.431762
0.424754
0.418601
0.411977
0.408108
0.40307
0.398197
0.39344
0.388561
0.384952
0.380707
0.375575
0.370693
0.366039
0.361594
0.358041
0.352914
0.349563
0.346242
0.341578
0.336867
0.332569
0.328699
0.324091
0.319916
0.315689
0.310259
0.306653
0.301869
0.296512
0.291559
0.28757
0.282489
0.276312
0.270528
0.264835
0.260427
0.256006
0.250115
0.245833
0.241545
0.234493
0.229703
0.222285
0.214619
0.208071
0.20207
0.19376
0.187308
0.179107
0.170888
0.160982
0.152315
0.143337
0.133512
0.122572
0.110216
0.0974553
0.0866936
0.076806
0.0647862
0.0470109
0.0300279
1
1
1
1
1
1
1
1
1
1
1
1
1
1
1
1
1
1
1
1
1
1
1
1
0.999903
0.984482
0.871594
0.6891
0.597833
0.527612
0.502377
0.477524
0.462967
0.450353
0.439451
0.433629
0.427369
0.421755
0.415436
0.409295
0.405482
0.400543
0.396188
0.39239
0.387253
0.382902
0.378356
0.374984
0.371647
0.368374
0.365145
0.361295
0.357904
0.353149
0.348589
0.34448
0.341017
0.33712
0.33298
0.329778
0.324725
0.321264
0.316358
0.312098
0.306595
0.302236
0.297062
0.291543
0.287937
0.281998
0.276428
0.272362
0.266402
0.260253
0.255052
0.249754
0.243809
0.23801
0.232344
0.226622
0.219469
0.212054
0.205023
0.198427
0.192402
0.185847
0.179914
0.173111
0.164037
0.154018
0.143906
0.135652
0.127639
0.116541
0.106951
0.0932293
0.0835307
0.0731819
0.0559442
0.0354315
1
1
1
1
1
1
1
1
1
1
1
1
1
1
1
1
1
1
1
1
1
1
1
0.999999
0.998825
0.955352
0.805691
0.646249
0.568988
0.534494
0.5025
0.478436
0.466258
0.453536
0.444232
0.435711
0.426618
0.418352
0.411634
0.407447
0.402401
0.398615
0.394219
0.389215
0.383655
0.379823
0.374927
0.370555
0.365333
0.360989
0.355997
0.352501
0.349245
0.345989
0.340987
0.337514
0.332911
0.328945
0.323614
0.319099
0.314718
0.311248
0.307057
0.302575
0.297334
0.293698
0.289336
0.285427
0.280458
0.275908
0.270802
0.264794
0.260808
0.255979
0.25025
0.243554
0.237792
0.232546
0.225286
0.218682
0.212779
0.207375
0.201613
0.193872
0.18773
0.179967
0.171839
0.163394
0.156266
0.147099
0.138319
0.128529
0.120742
0.111715
0.0987802
0.0890672
0.0795446
0.0626028
0.0484165
0.0276559
1
1
1
1
1
1
1
1
1
1
1
1
1
1
1
1
1
1
1
1
1
1
1
0.999661
0.969593
0.823426
0.669644
0.588568
0.539039
0.503757
0.48426
0.469674
0.45566
0.443767
0.436764
0.43085
0.424535
0.416446
0.409176
0.402482
0.398019
0.392911
0.389134
0.383357
0.379316
0.374131
0.368783
0.363519
0.359947
0.354787
0.351721
0.347312
0.343575
0.338666
0.33465
0.330895
0.32663
0.321377
0.318212
0.315039
0.310445
0.306069
0.302388
0.296938
0.293376
0.287777
0.283586
0.280105
0.275266
0.269831
0.26507
0.259966
0.255053
0.249464
0.242842
0.2384
0.23177
0.227404
0.222385
0.217912
0.212707
0.205005
0.200194
0.192049
0.183915
0.177691
0.168885
0.160886
0.153871
0.14756
0.141056
0.132361
0.121141
0.110767
0.100803
0.0908113
0.0817686
0.0665992
0.050134
0.0346044
1
1
1
1
1
1
1
1
1
1
1
1
1
1
1
1
1
1
1
1
1
1
0.999999
0.998432
0.942361
0.748621
0.610581
0.543817
0.499667
0.463058
0.440071
0.429459
0.421736
0.413879
0.407004
0.401787
0.395725
0.388574
0.383413
0.376612
0.371533
0.365465
0.361389
0.356843
0.352997
0.349755
0.345486
0.342139
0.337273
0.334571
0.330123
0.32752
0.32392
0.320065
0.315198
0.312609
0.309272
0.304381
0.301797
0.297398
0.292427
0.287931
0.284405
0.280554
0.276702
0.272542
0.269155
0.266024
0.260884
0.256782
0.25173
0.24715
0.242486
0.23772
0.23254
0.227838
0.222965
0.216707
0.212253
0.207712
0.201683
0.194741
0.188943
0.182539
0.177098
0.170288
0.163128
0.155276
0.146936
0.140873
0.134652
0.126207
0.116776
0.108333
0.0993935
0.0855605
0.071395
0.0610177
0.0499782
0.0328706
1
1
1
1
1
1
1
1
1
1
1
1
1
1
1
1
1
1
1
1
1
1
0.999976
0.991544
0.882651
0.693577
0.550499
0.503269
0.453737
0.420629
0.395467
0.382664
0.372737
0.361777
0.351601
0.340149
0.331908
0.327079
0.320201
0.314347
0.309425
0.304434
0.299037
0.293561
0.290929
0.288793
0.283632
0.280426
0.275662
0.271413
0.26721
0.264683
0.261855
0.2581
0.256209
0.253189
0.249857
0.247411
0.245057
0.241153
0.237187
0.235661
0.23327
0.229329
0.225019
0.222506
0.219674
0.216819
0.212899
0.210541
0.206834
0.203063
0.199197
0.195203
0.192807
0.190757
0.185865
0.180794
0.17668
0.17204
0.166384
0.163601
0.158775
0.153303
0.149271
0.145062
0.138418
0.134611
0.129734
0.122689
0.116191
0.108675
0.103367
0.09663
0.0863018
0.0795036
0.0672667
0.055011
0.0417453
0.0253898
1
1
1
1
1
1
1
1
1
1
1
1
1
1
1
1
1
1
1
1
1
1
1
1
1
1
1
0.999999
0.998905
0.958221
0.830288
0.720356
0.660728
0.621295
0.597538
0.583464
0.569865
0.559518
0.55108
0.545022
0.538537
0.53248
0.526741
0.520715
0.514426
0.508382
0.502551
0.49639
0.491236
0.485896
0.479549
0.473018
0.46729
0.460696
0.454547
0.449206
0.443337
0.437758
0.430916
0.42383
0.416679
0.409823
0.403057
0.396204
0.389094
0.383234
0.375555
0.368374
0.361266
0.354902
0.348666
0.341094
0.334696
0.327095
0.318879
0.310252
0.301155
0.292886
0.283704
0.275402
0.266406
0.256926
0.248109
0.2403
0.230158
0.220365
0.210283
0.199906
0.189289
0.178442
0.166365
0.153819
0.139753
0.126937
0.115784
0.101408
0.0875652
0.0690011
0.0518675
0.0307183
1
1
1
1
1
1
1
1
1
1
1
1
1
1
1
1
1
1
1
1
1
1
1
1
1
1
0.999746
0.977094
0.834211
0.653473
0.563135
0.510181
0.488184
0.47604
0.463461
0.455042
0.446559
0.440344
0.43469
0.429415
0.424536
0.420418
0.415954
0.410303
0.405314
0.400149
0.396008
0.391093
0.387214
0.38253
0.37797
0.373191
0.368999
0.364786
0.359212
0.35404
0.350024
0.346201
0.341278
0.335657
0.329742
0.325494
0.320806
0.314993
0.309523
0.305386
0.299074
0.294819
0.288662
0.283892
0.277811
0.27332
0.268333
0.263771
0.25862
0.253984
0.24679
0.239407
0.232369
0.225124
0.217966
0.211178
0.205601
0.197509
0.191237
0.184509
0.176813
0.166864
0.156279
0.148186
0.138923
0.129242
0.121089
0.110669
0.0973426
0.0853427
0.0753429
0.0612326
0.0497419
0.0267857
1
1
1
1
1
1
1
1
1
1
1
1
1
1
1
1
1
1
1
1
1
1
1
1
1
0.999952
0.990637
0.886528
0.699826
0.594505
0.526544
0.500633
0.477011
0.460145
0.448649
0.439987
0.433695
0.426661
0.421621
0.416611
0.412448
0.408177
0.40254
0.397865
0.394034
0.389345
0.384756
0.379526
0.375042
0.371472
0.366155
0.362798
0.359243
0.354382
0.349479
0.344998
0.340484
0.335956
0.331842
0.327474
0.322382
0.318605
0.313653
0.309365
0.305068
0.300773
0.294938
0.289457
0.284874
0.280736
0.276335
0.270584
0.264952
0.259235
0.252497
0.247031
0.241741
0.236048
0.231195
0.224693
0.220004
0.213607
0.208444
0.200398
0.192801
0.186895
0.179258
0.173001
0.164071
0.154239
0.144793
0.136261
0.125291
0.11406
0.102613
0.0885802
0.0731546
0.0621012
0.0501807
0.0281178
1
1
1
1
1
1
1
1
1
1
1
1
1
1
1
1
1
1
1
1
1
1
1
1
1
0.999994
0.996469
0.92287
0.768382
0.635966
0.55302
0.512015
0.483584
0.472069
0.456403
0.448371
0.440365
0.430919
0.424123
0.416686
0.412153
0.405964
0.399797
0.395092
0.390744
0.386009
0.382506
0.37722
0.372657
0.368586
0.364989
0.361218
0.357024
0.353251
0.349072
0.345538
0.340436
0.335521
0.331244
0.327164
0.323504
0.31871
0.313147
0.307947
0.302446
0.298247
0.294496
0.289538
0.285516
0.279668
0.274195
0.26943
0.263019
0.258359
0.251668
0.245593
0.240244
0.233846
0.228114
0.221035
0.214947
0.207746
0.200346
0.192286
0.183467
0.177328
0.169035
0.162039
0.154401
0.145692
0.138002
0.129109
0.120344
0.110205
0.0966285
0.0837979
0.0711701
0.0595602
0.0441397
0.0294355
1
1
1
1
1
1
1
1
1
1
1
1
1
1
1
1
1
1
1
1
1
1
1
1
1
0.999573
0.971086
0.811618
0.636832
0.575572
0.523294
0.496907
0.476933
0.462644
0.454732
0.447364
0.439099
0.431762
0.424754
0.418601
0.411977
0.408108
0.40307
0.398197
0.39344
0.388561
0.384952
0.380707
0.375575
0.370693
0.366039
0.361594
0.358041
0.352914
0.349563
0.346242
0.341578
0.336867
0.332569
0.328699
0.324091
0.319916
0.315689
0.310259
0.306653
0.301869
0.296512
0.291559
0.28757
0.282489
0.276312
0.270528
0.264835
0.260427
0.256006
0.250115
0.245833
0.241545
0.234493
0.229703
0.222285
0.214619
0.208071
0.20207
0.19376
0.187308
0.179107
0.170888
0.160982
0.152315
0.143337
0.133512
0.122572
0.110216
0.0974553
0.0866936
0.076806
0.0647862
0.0470109
0.0300279
1
1
1
1
1
1
1
1
1
1
1
1
1
1
1
1
1
1
1
1
1
1
1
1
0.999903
0.984482
0.871594
0.6891
0.597833
0.527612
0.502377
0.477524
0.462967
0.450353
0.439451
0.433629
0.427369
0.421755
0.415436
0.409295
0.405482
0.400543
0.396188
0.39239
0.387253
0.382902
0.378356
0.374984
0.371647
0.368374
0.365145
0.361295
0.357904
0.353149
0.348589
0.34448
0.341017
0.33712
0.33298
0.329778
0.324725
0.321264
0.316358
0.312098
0.306595
0.302236
0.297062
0.291543
0.287937
0.281998
0.276428
0.272362
0.266402
0.260253
0.255052
0.249754
0.243809
0.23801
0.232344
0.226622
0.219469
0.212054
0.205023
0.198427
0.192402
0.185847
0.179914
0.173111
0.164037
0.154018
0.143906
0.135652
0.127639
0.116541
0.106951
0.0932293
0.0835307
0.0731819
0.0559442
0.0354315
1
1
1
1
1
1
1
1
1
1
1
1
1
1
1
1
1
1
1
1
1
1
1
0.999999
0.998825
0.955352
0.805691
0.646249
0.568988
0.534494
0.5025
0.478436
0.466258
0.453536
0.444232
0.435711
0.426618
0.418352
0.411634
0.407447
0.402401
0.398615
0.394219
0.389215
0.383655
0.379823
0.374927
0.370555
0.365333
0.360989
0.355997
0.352501
0.349245
0.345989
0.340987
0.337514
0.332911
0.328945
0.323614
0.319099
0.314718
0.311248
0.307057
0.302575
0.297334
0.293698
0.289336
0.285427
0.280458
0.275908
0.270802
0.264794
0.260808
0.255979
0.25025
0.243554
0.237792
0.232546
0.225286
0.218682
0.212779
0.207375
0.201613
0.193872
0.18773
0.179967
0.171839
0.163394
0.156266
0.147099
0.138319
0.128529
0.120742
0.111715
0.0987802
0.0890672
0.0795446
0.0626028
0.0484165
0.0276559
1
1
1
1
1
1
1
1
1
1
1
1
1
1
1
1
1
1
1
1
1
1
1
0.999661
0.969593
0.823426
0.669644
0.588568
0.539039
0.503757
0.48426
0.469674
0.45566
0.443767
0.436764
0.43085
0.424535
0.416446
0.409176
0.402482
0.398019
0.392911
0.389134
0.383357
0.379316
0.374131
0.368783
0.363519
0.359947
0.354787
0.351721
0.347312
0.343575
0.338666
0.33465
0.330895
0.32663
0.321377
0.318212
0.315039
0.310445
0.306069
0.302388
0.296938
0.293376
0.287777
0.283586
0.280105
0.275266
0.269831
0.26507
0.259966
0.255053
0.249464
0.242842
0.2384
0.23177
0.227404
0.222385
0.217912
0.212707
0.205005
0.200194
0.192049
0.183915
0.177691
0.168885
0.160886
0.153871
0.14756
0.141056
0.132361
0.121141
0.110767
0.100803
0.0908113
0.0817686
0.0665992
0.050134
0.0346044
1
1
1
1
1
1
1
1
1
1
1
1
1
1
1
1
1
1
1
1
1
1
0.999999
0.998432
0.942361
0.748621
0.610581
0.543817
0.499667
0.463058
0.440071
0.429459
0.421736
0.413879
0.407004
0.401787
0.395725
0.388574
0.383413
0.376612
0.371533
0.365465
0.361389
0.356843
0.352997
0.349755
0.345486
0.342139
0.337273
0.334571
0.330123
0.32752
0.32392
0.320065
0.315198
0.312609
0.309272
0.304381
0.301797
0.297398
0.292427
0.287931
0.284405
0.280554
0.276702
0.272542
0.269155
0.266024
0.260884
0.256782
0.25173
0.24715
0.242486
0.23772
0.23254
0.227838
0.222965
0.216707
0.212253
0.207712
0.201683
0.194741
0.188943
0.182539
0.177098
0.170288
0.163128
0.155276
0.146936
0.140873
0.134652
0.126207
0.116776
0.108333
0.0993935
0.0855605
0.071395
0.0610177
0.0499782
0.0328706
1
1
1
1
1
1
1
1
1
1
1
1
1
1
1
1
1
1
1
1
1
1
0.999976
0.991544
0.882651
0.693577
0.550499
0.503269
0.453737
0.420629
0.395467
0.382664
0.372737
0.361777
0.351601
0.340149
0.331908
0.327079
0.320201
0.314347
0.309425
0.304434
0.299037
0.293561
0.290929
0.288793
0.283632
0.280426
0.275662
0.271413
0.26721
0.264683
0.261855
0.2581
0.256209
0.253189
0.249857
0.247411
0.245057
0.241153
0.237187
0.235661
0.23327
0.229329
0.225019
0.222506
0.219674
0.216819
0.212899
0.210541
0.206834
0.203063
0.199197
0.195203
0.192807
0.190757
0.185865
0.180794
0.17668
0.17204
0.166384
0.163601
0.158775
0.153303
0.149271
0.145062
0.138418
0.134611
0.129734
0.122689
0.116191
0.108675
0.103367
0.09663
0.0863018
0.0795036
0.0672667
0.055011
0.0417453
0.0253898
1
1
1
1
1
1
1
1
1
1
1
1
1
1
1
1
1
1
1
1
1
1
1
1
1
1
1
0.999999
0.998905
0.958221
0.830288
0.720356
0.660728
0.621295
0.597538
0.583464
0.569865
0.559518
0.55108
0.545022
0.538537
0.53248
0.526741
0.520715
0.514426
0.508382
0.502551
0.49639
0.491236
0.485896
0.479549
0.473018
0.46729
0.460696
0.454547
0.449206
0.443337
0.437758
0.430916
0.42383
0.416679
0.409823
0.403057
0.396204
0.389094
0.383234
0.375555
0.368374
0.361266
0.354902
0.348666
0.341094
0.334696
0.327095
0.318879
0.310252
0.301155
0.292886
0.283704
0.275402
0.266406
0.256926
0.248109
0.2403
0.230158
0.220365
0.210283
0.199906
0.189289
0.178442
0.166365
0.153819
0.139753
0.126937
0.115784
0.101408
0.0875652
0.0690011
0.0518675
0.0307183
1
1
1
1
1
1
1
1
1
1
1
1
1
1
1
1
1
1
1
1
1
1
0.999976
0.991544
0.882651
0.693577
0.550499
0.503269
0.453737
0.420629
0.395467
0.382664
0.372737
0.361777
0.351601
0.340149
0.331908
0.327079
0.320201
0.314347
0.309425
0.304434
0.299037
0.293561
0.290929
0.288793
0.283632
0.280426
0.275662
0.271413
0.26721
0.264683
0.261855
0.2581
0.256209
0.253189
0.249857
0.247411
0.245057
0.241153
0.237187
0.235661
0.23327
0.229329
0.225019
0.222506
0.219674
0.216819
0.212899
0.210541
0.206834
0.203063
0.199197
0.195203
0.192807
0.190757
0.185865
0.180794
0.17668
0.17204
0.166384
0.163601
0.158775
0.153303
0.149271
0.145062
0.138418
0.134611
0.129734
0.122689
0.116191
0.108675
0.103367
0.09663
0.0863018
0.0795036
0.0672667
0.055011
0.0417453
0.0253898
)
;
    }
}


// ************************************************************************* //
