/*--------------------------------*- C++ -*----------------------------------*\
| =========                 |                                                 |
| \\      /  F ield         | foam-extend: Open Source CFD                    |
|  \\    /   O peration     | Version:     5.0                                |
|   \\  /    A nd           | Web:         http://www.foam-extend.org         |
|    \\/     M anipulation  |                                                 |
\*---------------------------------------------------------------------------*/
FoamFile
{
    version     2.0;
    format      ascii;
    class       volVectorField;
    location    "10000";
    object      U.gas;
}
// * * * * * * * * * * * * * * * * * * * * * * * * * * * * * * * * * * * * * //

dimensions      [0 1 -1 0 0 0 0];

internalField   nonuniform List<vector> 
1000
(
(0 0 0)
(0 0 0)
(0 0 0)
(0 0 0)
(0 0 0)
(0 0 0)
(0 0 0)
(0 0 0)
(0 0 0)
(0 0 0)
(0 0 0)
(0 0 0)
(0 0 0)
(0 0 0)
(0 0 0)
(0 0 0)
(0 0 0)
(0 0 0)
(0 0 0)
(0 0 0)
(0 0 0)
(0 0 0)
(0 0 0)
(0 0 0)
(0 1.7266e-36 0)
(0 2.65659e-18 -4.08515e-15)
(0 -9.1099e-09 -6.3e-07)
(0 -0.000878074 -0.000316951)
(0 -0.000908752 -5.26496e-05)
(0 -0.000441754 -0.000178254)
(0 -0.000421005 -6.43439e-05)
(0 -0.000472529 -2.50062e-05)
(0 -0.000454828 -8.27373e-06)
(0 -0.000465278 -3.03143e-06)
(0 -0.000543061 -7.01186e-07)
(0 -0.00043531 2.47285e-07)
(0 -0.000438368 6.46253e-07)
(0 -0.000459801 8.87787e-07)
(0 -0.000662209 1.37797e-06)
(0 -0.000559878 1.38324e-06)
(0 -0.000592994 1.61749e-06)
(0 -0.000629827 1.72059e-06)
(0 -0.000565515 1.57042e-06)
(0 -0.000513627 1.57808e-06)
(0 -0.000541162 1.68599e-06)
(0 -0.000571526 1.88113e-06)
(0 -0.000519056 1.67685e-06)
(0 -0.000728187 2.41482e-06)
(0 -0.000684723 2.30203e-06)
(0 -0.000500109 1.81045e-06)
(0 -0.000480285 1.82752e-06)
(0 -0.000615507 2.3548e-06)
(0 -0.000483815 1.85867e-06)
(0 -0.000557864 1.92817e-06)
(0 -0.000744951 2.49308e-06)
(0 -0.000622543 2.27019e-06)
(0 -0.00070206 2.64626e-06)
(0 -0.000490347 1.92966e-06)
(0 -0.000471391 1.8547e-06)
(0 -0.000472703 1.85174e-06)
(0 -0.000516984 2.14857e-06)
(0 -0.000543017 2.15102e-06)
(0 -0.000544193 2.02859e-06)
(0 -0.000520476 1.96858e-06)
(0 -0.000763947 2.87163e-06)
(0 -0.000478884 1.76518e-06)
(0 -0.000547803 2.13482e-06)
(0 -0.000575794 2.02122e-06)
(0 -0.000719799 2.45279e-06)
(0 -0.000767981 2.37716e-06)
(0 -0.000549212 1.94789e-06)
(0 -0.000768443 2.56454e-06)
(0 -0.000577096 2.17683e-06)
(0 -0.000525134 2.09899e-06)
(0 -0.00050278 2.18538e-06)
(0 -0.000482117 1.94042e-06)
(0 -0.000577976 2.1548e-06)
(0 -0.000502588 1.95187e-06)
(0 -0.000607469 2.15728e-06)
(0 -0.000549268 2.03004e-06)
(0 -0.000523732 1.96535e-06)
(0 -0.000605244 2.18908e-06)
(0 -0.000764678 2.13175e-06)
(0 -0.000520908 1.9111e-06)
(0 -0.000571558 2.1663e-06)
(0 -0.000570249 2.02271e-06)
(0 -0.000568366 1.76161e-06)
(0 -0.000565927 1.62418e-06)
(0 -0.000563519 1.90419e-06)
(0 -0.000510448 1.8563e-06)
(0 -0.00050816 1.93644e-06)
(0 -0.000463759 1.90287e-06)
(0 -0.000552536 1.59788e-06)
(0 -0.000684785 1.08333e-06)
(0 -0.000518074 1.23962e-06)
(0 -0.000567458 1.7299e-06)
(0 -0.000446141 1.67774e-06)
(0 -0.000529299 1.90949e-06)
(0 -0.000498193 9.23205e-07)
(0 -0.000571507 1.51899e-06)
(0 0 0)
(0 0 0)
(0 0 0)
(0 0 0)
(0 0 0)
(0 0 0)
(0 0 0)
(0 0 0)
(0 0 0)
(0 0 0)
(0 0 0)
(0 0 0)
(0 0 0)
(0 0 0)
(0 0 0)
(0 0 0)
(0 0 0)
(0 0 0)
(0 0 0)
(0 0 0)
(0 0 0)
(0 0 0)
(0 0 0)
(0 0 0)
(0 -3.25908e-13 -8.36531e-20)
(0 -0.000675181 -2.27075e-08)
(0 -0.00108651 -1.50774e-07)
(0 -0.000752114 -9.81221e-08)
(0 -0.000531688 -1.98222e-05)
(0 -0.000590382 -4.52371e-05)
(0 -0.00055744 -3.7593e-05)
(0 -0.000713995 -2.93853e-05)
(0 -0.000845844 -1.8597e-05)
(0 -0.000643661 -6.87975e-06)
(0 -0.000707064 -3.08394e-06)
(0 -0.000582846 -5.459e-07)
(0 -0.000667411 1.88365e-07)
(0 -0.000665468 9.89212e-07)
(0 -0.000664045 1.38243e-06)
(0 -0.000697753 2.03423e-06)
(0 -0.000826837 2.68316e-06)
(0 -0.000734078 2.50634e-06)
(0 -0.000550666 2.30483e-06)
(0 -0.00062885 2.98639e-06)
(0 -0.000600171 2.88284e-06)
(0 -0.000775517 3.77203e-06)
(0 -0.000627596 3.02581e-06)
(0 -0.000822188 4.07578e-06)
(0 -0.000657739 3.59051e-06)
(0 -0.00069181 3.90794e-06)
(0 -0.000656855 4.12827e-06)
(0 -0.000771973 4.82115e-06)
(0 -0.000771304 4.71423e-06)
(0 -0.000546448 3.31968e-06)
(0 -0.000595597 3.55457e-06)
(0 -0.00081745 4.79911e-06)
(0 -0.000870597 5.24082e-06)
(0 -0.000652642 4.39811e-06)
(0 -0.000567208 4.02753e-06)
(0 -0.000543068 3.84404e-06)
(0 -0.000812443 5.73088e-06)
(0 -0.00072117 4.83372e-06)
(0 -0.000563841 3.86383e-06)
(0 -0.000616304 4.23258e-06)
(0 -0.00086051 5.69634e-06)
(0 -0.000537494 3.59452e-06)
(0 -0.000856451 5.60663e-06)
(0 -0.000557922 3.72109e-06)
(0 -0.000752396 4.70743e-06)
(0 -0.000580537 3.46873e-06)
(0 -0.00084783 4.89679e-06)
(0 -0.000745555 4.15042e-06)
(0 -0.000841364 5.08992e-06)
(0 -0.000739339 4.70431e-06)
(0 -0.000833872 6.023e-06)
(0 -0.000520001 4.09873e-06)
(0 -0.000518198 4.0219e-06)
(0 -0.000563243 4.47852e-06)
(0 -0.000561196 4.06956e-06)
(0 -0.00058547 4.39735e-06)
(0 -0.000643879 4.49126e-06)
(0 -0.000810857 5.33687e-06)
(0 -0.000550755 3.08563e-06)
(0 -0.000751765 4.75636e-06)
(0 -0.000703515 5.03578e-06)
(0 -0.000626209 4.45346e-06)
(0 -0.000493591 3.72345e-06)
(0 -0.000490721 3.37534e-06)
(0 -0.000686922 4.50822e-06)
(0 -0.000610314 4.35796e-06)
(0 -0.000605289 4.52326e-06)
(0 -0.000758946 5.23289e-06)
(0 -0.000594057 3.3697e-06)
(0 -0.000486599 2.16243e-06)
(0 -0.000582039 2.61449e-06)
(0 -0.000727507 3.45399e-06)
(0 -0.000539638 3.92539e-06)
(0 -0.000708838 4.56157e-06)
(0 -0.000438185 2.05225e-06)
(0 -0.000642469 3.01645e-06)
(0 0 0)
(0 0 0)
(0 0 0)
(0 0 0)
(0 0 0)
(0 0 0)
(0 0 0)
(0 0 0)
(0 0 0)
(0 0 0)
(0 0 0)
(0 0 0)
(0 0 0)
(0 0 0)
(0 0 0)
(0 0 0)
(0 0 0)
(0 0 0)
(0 0 0)
(0 0 0)
(0 0 0)
(0 0 0)
(0 0 0)
(0 4.67416e-15 0)
(0 -2.39604e-05 -2.80061e-16)
(0 -0.00117141 1.66388e-09)
(0 -0.000856476 1.55881e-07)
(0 -0.000590211 -1.50731e-07)
(0 -0.000625231 -1.64817e-05)
(0 -0.00057294 -2.56145e-05)
(0 -0.000835519 -3.78868e-05)
(0 -0.000650059 -2.30534e-05)
(0 -0.000625031 -1.43093e-05)
(0 -0.000687763 -9.55604e-06)
(0 -0.000722386 -5.40656e-06)
(0 -0.000854783 -3.25445e-06)
(0 -0.000682675 -1.55129e-06)
(0 -0.000849885 -5.24581e-07)
(0 -0.000797923 3.36368e-07)
(0 -0.000901756 1.64269e-06)
(0 -0.000844074 1.95993e-06)
(0 -0.00061388 1.89041e-06)
(0 -0.0007095 3.02512e-06)
(0 -0.000840755 4.03525e-06)
(0 -0.000672159 3.44997e-06)
(0 -0.000671567 3.64749e-06)
(0 -0.000583913 3.11331e-06)
(0 -0.000670499 3.59627e-06)
(0 -0.000836557 4.97372e-06)
(0 -0.00055785 3.61346e-06)
(0 -0.000890014 6.02074e-06)
(0 -0.000833161 5.62701e-06)
(0 -0.000605771 4.22542e-06)
(0 -0.000605104 4.46807e-06)
(0 -0.000664622 4.88821e-06)
(0 -0.000663796 4.38252e-06)
(0 -0.000662805 4.40431e-06)
(0 -0.00073491 5.50333e-06)
(0 -0.000694912 5.68045e-06)
(0 -0.000599153 4.99904e-06)
(0 -0.000821186 6.21932e-06)
(0 -0.000624644 4.53159e-06)
(0 -0.000726242 5.42702e-06)
(0 -0.000723938 5.39069e-06)
(0 -0.000722008 5.39246e-06)
(0 -0.00054083 4.3463e-06)
(0 -0.000588383 4.33815e-06)
(0 -0.000716698 5.46269e-06)
(0 -0.000803317 5.24965e-06)
(0 -0.000753347 4.86938e-06)
(0 -0.000580661 3.6175e-06)
(0 -0.000606345 3.6381e-06)
(0 -0.000604599 3.97717e-06)
(0 -0.000527731 3.51876e-06)
(0 -0.000663548 4.75316e-06)
(0 -0.000697332 5.89557e-06)
(0 -0.000657437 5.61297e-06)
(0 -0.000776045 6.49496e-06)
(0 -0.000588502 4.63648e-06)
(0 -0.000818024 6.17945e-06)
(0 -0.000610427 4.14793e-06)
(0 -0.000757947 4.72814e-06)
(0 -0.00050326 3.27128e-06)
(0 -0.000545402 3.39437e-06)
(0 -0.000700928 5.08484e-06)
(0 -0.00056439 4.23325e-06)
(0 -0.000691541 5.95391e-06)
(0 -0.00050806 4.37365e-06)
(0 -0.000483419 3.77039e-06)
(0 -0.000523324 4.2959e-06)
(0 -0.000600953 4.76305e-06)
(0 -0.000493151 3.55073e-06)
(0 -0.000511185 3.41102e-06)
(0 -0.000530282 3.23548e-06)
(0 -0.000459736 2.75748e-06)
(0 -0.000455166 2.62677e-06)
(0 -0.000673288 4.40743e-06)
(0 -0.000664846 3.1615e-06)
(0 -0.000438036 2.90116e-06)
(0 -0.000605242 2.36379e-06)
(0 0 0)
(0 0 0)
(0 0 0)
(0 0 0)
(0 0 0)
(0 0 0)
(0 0 0)
(0 0 0)
(0 0 0)
(0 0 0)
(0 0 0)
(0 0 0)
(0 0 0)
(0 0 0)
(0 0 0)
(0 0 0)
(0 0 0)
(0 0 0)
(0 0 0)
(0 0 0)
(0 0 0)
(0 0 0)
(0 0 0)
(0 8.68291e-19 -9.09046e-39)
(0 -3.54137e-07 -3.38821e-14)
(0 -0.00124843 -4.28446e-09)
(0 -0.000975323 3.25033e-07)
(0 -0.000677586 -2.63382e-05)
(0 -0.000546648 -3.20051e-05)
(0 -0.000526256 -2.31826e-05)
(0 -0.000591205 -2.32398e-05)
(0 -0.000554662 -1.63543e-05)
(0 -0.000887067 -1.8455e-05)
(0 -0.000561195 -7.24465e-06)
(0 -0.000840734 -6.69362e-06)
(0 -0.000748952 -3.78658e-06)
(0 -0.000563648 -1.47274e-06)
(0 -0.000675996 -8.81704e-07)
(0 -0.000564311 5.90179e-08)
(0 -0.000844794 9.88756e-07)
(0 -0.000588812 1.5893e-06)
(0 -0.000564694 2.06563e-06)
(0 -0.000712311 2.9385e-06)
(0 -0.000751041 3.26214e-06)
(0 -0.000675387 3.33894e-06)
(0 -0.00089847 5.00593e-06)
(0 -0.000586172 3.46385e-06)
(0 -0.000673015 3.83788e-06)
(0 -0.000746542 4.3488e-06)
(0 -0.000838059 5.4323e-06)
(0 -0.000787404 5.08176e-06)
(0 -0.000703757 4.80667e-06)
(0 -0.000784894 5.52639e-06)
(0 -0.000700993 5.4108e-06)
(0 -0.000830505 6.46951e-06)
(0 -0.000577536 4.29776e-06)
(0 -0.000602802 4.47734e-06)
(0 -0.000696454 5.37435e-06)
(0 -0.00073351 6.01042e-06)
(0 -0.000822835 6.77681e-06)
(0 -0.000626022 5.01424e-06)
(0 -0.000547106 4.39944e-06)
(0 -0.000595512 4.56401e-06)
(0 -0.000568581 4.47333e-06)
(0 -0.000766727 5.87609e-06)
(0 -0.000865822 6.86252e-06)
(0 -0.000647527 5.07943e-06)
(0 -0.000806366 6.19704e-06)
(0 -0.000560144 3.79896e-06)
(0 -0.000611501 3.90839e-06)
(0 -0.000710735 4.82414e-06)
(0 -0.000531814 3.71629e-06)
(0 -0.000747423 5.68212e-06)
(0 -0.000528368 4.30167e-06)
(0 -0.000601324 4.70724e-06)
(0 -0.000698526 5.88891e-06)
(0 -0.000596764 5.11622e-06)
(0 -0.00069286 5.33449e-06)
(0 -0.000564763 4.56815e-06)
(0 -0.000686594 4.64641e-06)
(0 -0.000585988 3.90949e-06)
(0 -0.000583286 3.95834e-06)
(0 -0.000554445 4.3021e-06)
(0 -0.000527701 3.85673e-06)
(0 -0.000803466 5.8873e-06)
(0 -0.000599849 4.48645e-06)
(0 -0.000744065 5.51192e-06)
(0 -0.000695108 5.34543e-06)
(0 -0.000616847 5.00571e-06)
(0 -0.000725651 5.83458e-06)
(0 -0.000639846 4.92218e-06)
(0 -0.000671243 5.18767e-06)
(0 -0.000595186 4.33558e-06)
(0 -0.000467141 3.45777e-06)
(0 -0.000527819 4.40449e-06)
(0 -0.00057679 4.85872e-06)
(0 -0.000676663 3.93249e-06)
(0 -0.000563027 1.86457e-06)
(0 -0.000656321 3.22512e-06)
(0 -0.000572819 1.58205e-06)
(0 0 0)
(0 0 0)
(0 0 0)
(0 0 0)
(0 0 0)
(0 0 0)
(0 0 0)
(0 0 0)
(0 0 0)
(0 0 0)
(0 0 0)
(0 0 0)
(0 0 0)
(0 0 0)
(0 0 0)
(0 0 0)
(0 0 0)
(0 0 0)
(0 0 0)
(0 0 0)
(0 0 0)
(0 0 0)
(0 3.40184e-28 0)
(0 -3.72982e-11 -1.12746e-17)
(0 -0.00129456 -6.33346e-08)
(0 -0.00107344 -2.61987e-07)
(0 -0.000725251 -1.24338e-05)
(0 -0.000523722 -3.41782e-05)
(0 -0.000758303 -5.12793e-05)
(0 -0.000567413 -2.58922e-05)
(0 -0.000660646 -2.22079e-05)
(0 -0.000607424 -1.44201e-05)
(0 -0.000610895 -1.11969e-05)
(0 -0.000838861 -9.94805e-06)
(0 -0.000790209 -6.09827e-06)
(0 -0.000641505 -2.95724e-06)
(0 -0.000641895 -1.22501e-06)
(0 -0.000613047 -4.18633e-07)
(0 -0.000642134 5.73207e-07)
(0 -0.000562592 1.12993e-06)
(0 -0.000898217 2.86789e-06)
(0 -0.000673738 2.78688e-06)
(0 -0.000673241 2.92927e-06)
(0 -0.000672754 2.89835e-06)
(0 -0.00064023 3.14571e-06)
(0 -0.000838451 4.27128e-06)
(0 -0.000705475 4.30408e-06)
(0 -0.000582661 3.66338e-06)
(0 -0.00060874 3.89955e-06)
(0 -0.000637328 4.20184e-06)
(0 -0.000668613 4.50883e-06)
(0 -0.000834307 5.9281e-06)
(0 -0.000580301 4.03132e-06)
(0 -0.000886831 6.34497e-06)
(0 -0.000884843 6.58533e-06)
(0 -0.000631444 5.07922e-06)
(0 -0.000630285 5.08568e-06)
(0 -0.00069503 5.51317e-06)
(0 -0.000774958 6.32733e-06)
(0 -0.000657628 5.19149e-06)
(0 -0.000728775 6.2253e-06)
(0 -0.000726938 6.22065e-06)
(0 -0.000567807 4.80675e-06)
(0 -0.000866861 7.04696e-06)
(0 -0.000648847 5.20269e-06)
(0 -0.000588669 4.58289e-06)
(0 -0.00064558 5.09263e-06)
(0 -0.000804225 6.32104e-06)
(0 -0.000641999 4.82997e-06)
(0 -0.000533702 3.96636e-06)
(0 -0.000580434 4.44805e-06)
(0 -0.00060604 4.67959e-06)
(0 -0.000791468 5.87037e-06)
(0 -0.000787847 6.4269e-06)
(0 -0.000597841 4.83288e-06)
(0 -0.00083181 6.59534e-06)
(0 -0.000827532 6.88713e-06)
(0 -0.000515491 4.22839e-06)
(0 -0.000768285 6.5071e-06)
(0 -0.000510592 3.97711e-06)
(0 -0.000508107 4.02971e-06)
(0 -0.000606076 4.96262e-06)
(0 -0.000669387 5.82381e-06)
(0 -0.000499695 4.51175e-06)
(0 -0.000661671 5.43492e-06)
(0 -0.000538905 4.7019e-06)
(0 -0.000561257 4.67299e-06)
(0 -0.000488466 3.97263e-06)
(0 -0.000581406 4.71659e-06)
(0 -0.000577076 4.59599e-06)
(0 -0.00054579 4.73113e-06)
(0 -0.000517548 4.63261e-06)
(0 -0.000491409 4.24751e-06)
(0 -0.000508719 4.76916e-06)
(0 -0.000649979 5.44715e-06)
(0 -0.00072759 5.99178e-06)
(0 -0.000635363 3.79588e-06)
(0 -0.000485681 1.8367e-06)
(0 -0.000583402 1.17549e-06)
(0 -0.000572983 6.74525e-07)
(0 0 0)
(0 0 0)
(0 0 0)
(0 0 0)
(0 0 0)
(0 0 0)
(0 0 0)
(0 0 0)
(0 0 0)
(0 0 0)
(0 0 0)
(0 0 0)
(0 0 0)
(0 0 0)
(0 0 0)
(0 0 0)
(0 0 0)
(0 0 0)
(0 0 0)
(0 0 0)
(0 0 0)
(0 0 0)
(0 1.37445e-13 -4.03741e-32)
(0 -9.57169e-05 -2.58998e-12)
(0 -0.0011765 -2.81427e-09)
(0 -0.000871611 1.08999e-07)
(0 -0.000608609 -1.64567e-05)
(0 -0.000689338 -4.74545e-05)
(0 -0.000549077 -3.0403e-05)
(0 -0.000830576 -3.28555e-05)
(0 -0.000616286 -1.76841e-05)
(0 -0.000715846 -1.40968e-05)
(0 -0.000651315 -9.53556e-06)
(0 -0.000597106 -6.29377e-06)
(0 -0.000913963 -6.71832e-06)
(0 -0.000761877 -3.62227e-06)
(0 -0.000760595 -2.05427e-06)
(0 -0.000622049 -4.71707e-07)
(0 -0.000594692 6.19357e-07)
(0 -0.000909266 1.90938e-06)
(0 -0.000681893 1.89204e-06)
(0 -0.000756632 2.70954e-06)
(0 -0.000849573 3.24131e-06)
(0 -0.000617707 2.56864e-06)
(0 -0.000714031 3.40422e-06)
(0 -0.000677635 3.08569e-06)
(0 -0.00090102 4.60355e-06)
(0 -0.000898615 4.965e-06)
(0 -0.000895965 5.29877e-06)
(0 -0.00089349 5.51625e-06)
(0 -0.000743261 4.99934e-06)
(0 -0.000834481 5.80762e-06)
(0 -0.000606643 4.42609e-06)
(0 -0.000634468 4.29456e-06)
(0 -0.000699956 5.02798e-06)
(0 -0.000829057 6.2158e-06)
(0 -0.000735183 5.66077e-06)
(0 -0.000694684 5.1894e-06)
(0 -0.000876942 6.64872e-06)
(0 -0.000571232 4.48743e-06)
(0 -0.000818148 6.74397e-06)
(0 -0.000594199 4.95258e-06)
(0 -0.000685827 5.7445e-06)
(0 -0.000541989 4.28454e-06)
(0 -0.00068245 5.72246e-06)
(0 -0.000588339 5.03425e-06)
(0 -0.000561519 4.76797e-06)
(0 -0.000857644 6.64847e-06)
(0 -0.000535371 4.26479e-06)
(0 -0.000581919 4.71412e-06)
(0 -0.000796263 6.27063e-06)
(0 -0.000552628 4.56556e-06)
(0 -0.000550897 4.18295e-06)
(0 -0.000664076 4.84201e-06)
(0 -0.000661256 4.89625e-06)
(0 -0.000595916 4.30817e-06)
(0 -0.000623142 4.74808e-06)
(0 -0.000652838 5.19404e-06)
(0 -0.00064965 5.1825e-06)
(0 -0.000534629 4.68972e-06)
(0 -0.000532031 4.79324e-06)
(0 -0.000579579 5.0056e-06)
(0 -0.000636735 5.03173e-06)
(0 -0.000706675 6.06902e-06)
(0 -0.000662992 5.181e-06)
(0 -0.000740084 5.99484e-06)
(0 -0.000653201 5.58448e-06)
(0 -0.000508162 4.95315e-06)
(0 -0.0004838 4.56648e-06)
(0 -0.000501197 4.72025e-06)
(0 -0.000634583 5.91215e-06)
(0 -0.000665899 6.63916e-06)
(0 -0.000510327 5.13688e-06)
(0 -0.000616181 5.63221e-06)
(0 -0.000457835 3.90668e-06)
(0 -0.000677732 4.8419e-06)
(0 -0.000670054 3.19863e-06)
(0 -0.000442085 2.55658e-06)
(0 -0.000436057 1.78806e-06)
(0 -0.000448698 2.14455e-06)
(0 0 0)
(0 0 0)
(0 0 0)
(0 0 0)
(0 0 0)
(0 0 0)
(0 0 0)
(0 0 0)
(0 0 0)
(0 0 0)
(0 0 0)
(0 0 0)
(0 0 0)
(0 0 0)
(0 0 0)
(0 0 0)
(0 0 0)
(0 0 0)
(0 0 0)
(0 0 0)
(0 0 0)
(0 1.94248e-23 -1.23972e-42)
(0 -2.84513e-09 -7.50658e-15)
(0 -0.00130561 -1.04438e-07)
(0 -0.00110366 -3.9833e-07)
(0 -0.000779231 -2.81458e-05)
(0 -0.000586631 -4.34013e-05)
(0 -0.000681629 -4.46358e-05)
(0 -0.000843875 -4.23582e-05)
(0 -0.000655947 -2.35504e-05)
(0 -0.000607981 -1.40904e-05)
(0 -0.000838515 -1.38859e-05)
(0 -0.000676555 -7.76968e-06)
(0 -0.000754063 -5.62067e-06)
(0 -0.000717531 -3.87151e-06)
(0 -0.000595855 -2.03163e-06)
(0 -0.000572548 -1.26346e-06)
(0 -0.00062463 -3.87566e-07)
(0 -0.00091356 4.58255e-07)
(0 -0.000720966 1.05986e-06)
(0 -0.000911301 2.0815e-06)
(0 -0.000758935 2.45732e-06)
(0 -0.00065042 2.26419e-06)
(0 -0.00056917 2.63246e-06)
(0 -0.000801919 3.72768e-06)
(0 -0.000619557 2.8235e-06)
(0 -0.000680572 3.09579e-06)
(0 -0.000567146 2.84163e-06)
(0 -0.000679585 3.4545e-06)
(0 -0.000590718 3.38388e-06)
(0 -0.000847102 5.08304e-06)
(0 -0.000901699 5.62507e-06)
(0 -0.000899589 5.88557e-06)
(0 -0.000586131 4.01638e-06)
(0 -0.000840085 5.91866e-06)
(0 -0.000639505 4.41384e-06)
(0 -0.000744248 5.10454e-06)
(0 -0.000557766 4.17413e-06)
(0 -0.000667961 4.84116e-06)
(0 -0.00070147 5.10502e-06)
(0 -0.000885381 6.43009e-06)
(0 -0.000736115 5.80228e-06)
(0 -0.000695412 5.28608e-06)
(0 -0.00059907 4.87426e-06)
(0 -0.000874804 6.73991e-06)
(0 -0.000726862 6.06164e-06)
(0 -0.000814763 6.92257e-06)
(0 -0.000650239 4.87609e-06)
(0 -0.000719723 5.61939e-06)
(0 -0.000645503 5.09309e-06)
(0 -0.000559578 4.19776e-06)
(0 -0.00085349 6.71708e-06)
(0 -0.000708569 5.42501e-06)
(0 -0.000605115 4.38996e-06)
(0 -0.000527807 4.09624e-06)
(0 -0.000630473 4.66654e-06)
(0 -0.000697385 5.52387e-06)
(0 -0.000521604 4.30565e-06)
(0 -0.000593365 5.0623e-06)
(0 -0.000688539 6.00954e-06)
(0 -0.000769503 6.38411e-06)
(0 -0.000719836 6.17903e-06)
(0 -0.000553464 4.16871e-06)
(0 -0.000710978 5.2374e-06)
(0 -0.000572708 4.38006e-06)
(0 -0.000569298 4.0781e-06)
(0 -0.000565554 4.55937e-06)
(0 -0.000693077 6.73183e-06)
(0 -0.000557506 5.98942e-06)
(0 -0.0006113 6.46544e-06)
(0 -0.000576278 5.19485e-06)
(0 -0.000760391 6.10887e-06)
(0 -0.000664598 5.84685e-06)
(0 -0.000486858 4.08392e-06)
(0 -0.000690469 5.60961e-06)
(0 -0.000728428 4.65905e-06)
(0 -0.00045182 2.28694e-06)
(0 -0.000593289 3.96135e-06)
(0 -0.000479121 3.58501e-06)
(0 -0.00064425 4.16889e-06)
(0 0 0)
(0 0 0)
(0 0 0)
(0 0 0)
(0 0 0)
(0 0 0)
(0 0 0)
(0 0 0)
(0 0 0)
(0 0 0)
(0 0 0)
(0 0 0)
(0 0 0)
(0 0 0)
(0 0 0)
(0 0 0)
(0 0 0)
(0 0 0)
(0 0 0)
(0 0 0)
(0 2.73381e-31 0)
(0 -6.16079e-12 -2.63421e-30)
(0 -0.00112191 -8.64902e-12)
(0 -0.0011666 8.17265e-09)
(0 -0.000872447 6.78842e-07)
(0 -0.00071805 -2.3546e-05)
(0 -0.000780561 -5.29388e-05)
(0 -0.000747746 -4.29228e-05)
(0 -0.000661983 -2.98087e-05)
(0 -0.000742753 -2.31762e-05)
(0 -0.000748532 -1.37716e-05)
(0 -0.00064825 -7.77797e-06)
(0 -0.000623164 -4.93072e-06)
(0 -0.000856962 -4.93104e-06)
(0 -0.000914652 -3.44383e-06)
(0 -0.000808038 -1.38684e-06)
(0 -0.000599003 -2.18532e-07)
(0 -0.000599718 3.0245e-07)
(0 -0.000600284 2.20958e-07)
(0 -0.000810925 1.00346e-06)
(0 -0.000689369 1.04654e-06)
(0 -0.000860159 2.32916e-06)
(0 -0.000574029 2.12318e-06)
(0 -0.000763904 3.75446e-06)
(0 -0.000598328 3.06091e-06)
(0 -0.000573493 2.84803e-06)
(0 -0.000573246 2.89028e-06)
(0 -0.00080727 3.96572e-06)
(0 -0.000571646 3.05953e-06)
(0 -0.000911592 4.96254e-06)
(0 -0.000650746 3.82499e-06)
(0 -0.000757967 4.40198e-06)
(0 -0.000592956 3.55149e-06)
(0 -0.00071599 4.65012e-06)
(0 -0.000754208 5.16225e-06)
(0 -0.000677926 4.71539e-06)
(0 -0.000564209 3.79244e-06)
(0 -0.000899164 6.66988e-06)
(0 -0.000896509 5.98576e-06)
(0 -0.000638933 4.13404e-06)
(0 -0.000668853 4.45309e-06)
(0 -0.000784514 5.6784e-06)
(0 -0.000554855 4.04869e-06)
(0 -0.00082853 6.20845e-06)
(0 -0.000551449 4.0211e-06)
(0 -0.000732403 5.63019e-06)
(0 -0.000875806 6.65785e-06)
(0 -0.000655239 4.69561e-06)
(0 -0.000593797 4.40584e-06)
(0 -0.000684719 4.99602e-06)
(0 -0.000647982 4.80165e-06)
(0 -0.00067933 4.78485e-06)
(0 -0.000612664 4.4697e-06)
(0 -0.000534381 4.1178e-06)
(0 -0.000797138 6.41541e-06)
(0 -0.00055277 4.09828e-06)
(0 -0.00084185 5.81319e-06)
(0 -0.000738794 5.8675e-06)
(0 -0.00083193 6.60144e-06)
(0 -0.000729935 5.41875e-06)
(0 -0.000514641 3.72922e-06)
(0 -0.000817182 6.16093e-06)
(0 -0.00050884 4.0117e-06)
(0 -0.000527865 4.17632e-06)
(0 -0.000709314 5.63378e-06)
(0 -0.000521654 4.12816e-06)
(0 -0.000595167 4.89611e-06)
(0 -0.000694201 5.81141e-06)
(0 -0.000779621 7.44559e-06)
(0 -0.000772743 7.35328e-06)
(0 -0.000605256 5.27861e-06)
(0 -0.00049612 3.89619e-06)
(0 -0.000565027 4.60521e-06)
(0 -0.000621091 4.96313e-06)
(0 -0.000649656 3.58167e-06)
(0 -0.000726806 3.32124e-06)
(0 -0.000469419 3.47734e-06)
(0 -0.000484225 3.79605e-06)
(0 -0.000582337 4.56895e-06)
(0 -0.000469714 2.85559e-06)
(0 0 0)
(0 0 0)
(0 0 0)
(0 0 0)
(0 0 0)
(0 0 0)
(0 0 0)
(0 0 0)
(0 0 0)
(0 0 0)
(0 0 0)
(0 0 0)
(0 0 0)
(0 0 0)
(0 0 0)
(0 0 0)
(0 0 0)
(0 0 0)
(0 0 0)
(0 0 0)
(0 3.75942e-22 0)
(0 -9.37183e-09 -1.03256e-21)
(0 -0.00127482 -2.80328e-10)
(0 -0.00102854 3.11043e-08)
(0 -0.000701504 2.91101e-07)
(0 -0.00065866 -1.91229e-05)
(0 -0.000753778 -3.12685e-05)
(0 -0.000716489 -2.72773e-05)
(0 -0.000589381 -1.74263e-05)
(0 -0.000597106 -1.31566e-05)
(0 -0.000843939 -1.11187e-05)
(0 -0.000959107 -7.44919e-06)
(0 -0.000848245 -4.93624e-06)
(0 -0.000848261 -4.65168e-06)
(0 -0.000959655 -4.78987e-06)
(0 -0.000799706 -1.78251e-06)
(0 -0.000655116 3.39959e-07)
(0 -0.000799459 5.45362e-07)
(0 -0.000600252 6.14993e-07)
(0 -0.000719465 8.14667e-07)
(0 -0.000600081 8.53752e-07)
(0 -0.000798323 1.2274e-06)
(0 -0.000717571 1.88686e-06)
(0 -0.000795562 3.11784e-06)
(0 -0.000893374 4.05833e-06)
(0 -0.000713716 2.7602e-06)
(0 -0.000836932 3.38564e-06)
(0 -0.000617829 2.05504e-06)
(0 -0.000943157 3.43278e-06)
(0 -0.000642105 2.33389e-06)
(0 -0.000938182 4.27963e-06)
(0 -0.000739544 3.48093e-06)
(0 -0.000700999 3.49936e-06)
(0 -0.000583248 3.25056e-06)
(0 -0.000929449 4.92523e-06)
(0 -0.000772706 4.21701e-06)
(0 -0.000578418 3.44043e-06)
(0 -0.000921379 5.04035e-06)
(0 -0.000627284 3.03072e-06)
(0 -0.000573478 2.99334e-06)
(0 -0.000623695 3.76835e-06)
(0 -0.000759772 4.42796e-06)
(0 -0.000717282 4.02831e-06)
(0 -0.00071414 3.75913e-06)
(0 -0.000675718 4.18598e-06)
(0 -0.000791334 4.74599e-06)
(0 -0.000837443 4.80925e-06)
(0 -0.000580995 3.40107e-06)
(0 -0.000699866 4.51762e-06)
(0 -0.000602269 3.61327e-06)
(0 -0.000659243 3.89814e-06)
(0 -0.000656165 3.83837e-06)
(0 -0.000653014 4.13855e-06)
(0 -0.000619043 4.53472e-06)
(0 -0.000680891 4.72804e-06)
(0 -0.000677485 4.09964e-06)
(0 -0.000556852 2.85876e-06)
(0 -0.000748156 4.0879e-06)
(0 -0.000743845 3.93409e-06)
(0 -0.000599035 3.28801e-06)
(0 -0.000543881 3.78129e-06)
(0 -0.000653989 4.01173e-06)
(0 -0.00061727 4.2191e-06)
(0 -0.000720415 5.32892e-06)
(0 -0.000608581 4.30218e-06)
(0 -0.000604036 4.28548e-06)
(0 -0.000570949 4.42153e-06)
(0 -0.000566685 4.01086e-06)
(0 -0.000785577 4.83356e-06)
(0 -0.000778548 4.85745e-06)
(0 -0.000609444 4.14144e-06)
(0 -0.000573372 4.57446e-06)
(0 -0.000667251 4.82087e-06)
(0 -0.000660237 3.75273e-06)
(0 -0.000463827 2.52003e-06)
(0 -0.000500204 1.80382e-06)
(0 -0.000722005 3.87166e-06)
(0 -0.00071083 4.3228e-06)
(0 -0.000525409 3.2578e-06)
(0 -0.000491858 4.37314e-06)
(0 0 0)
(0 0 0)
(0 0 0)
(0 0 0)
(0 0 0)
(0 0 0)
(0 0 0)
(0 0 0)
(0 0 0)
(0 0 0)
(0 0 0)
(0 0 0)
(0 0 0)
(0 0 0)
(0 0 0)
(0 0 0)
(0 0 0)
(0 0 0)
(0 0 0)
(0 0 0)
(0 2.30938e-16 0)
(0 -5.78397e-06 -1.03256e-21)
(0 -0.00121694 -9.26934e-12)
(0 -0.0009249 5.9442e-09)
(0 -0.000660298 2.31235e-08)
(0 -0.000586874 -6.10708e-06)
(0 -0.000921072 -1.17669e-05)
(0 -0.000672135 -8.41462e-06)
(0 -0.000688699 -6.39257e-06)
(0 -0.000669097 -4.85179e-06)
(0 -0.000909002 -4.27954e-06)
(0 -0.000973155 -2.96323e-06)
(0 -0.000825912 -2.08702e-06)
(0 -0.000788432 -1.93187e-06)
(0 -0.000660691 -1.72048e-06)
(0 -0.000755458 -8.5035e-07)
(0 -0.000990052 3.33696e-07)
(0 -0.000755353 6.33695e-08)
(0 -0.000791812 4.04448e-07)
(0 -0.000832017 4.44905e-07)
(0 -0.000789493 5.35932e-07)
(0 -0.000716913 2.90207e-07)
(0 -0.000684531 5.00989e-07)
(0 -0.000979884 1.39937e-06)
(0 -0.00104264 1.65409e-06)
(0 -0.000651252 7.5527e-07)
(0 -0.000819176 1.02541e-06)
(0 -0.000647429 7.00806e-07)
(0 -0.00067341 5.98086e-07)
(0 -0.000671437 7.9933e-07)
(0 -0.00085443 1.23175e-06)
(0 -0.000807185 1.33068e-06)
(0 -0.000694878 1.20132e-06)
(0 -0.000950271 2.14319e-06)
(0 -0.00075777 1.3244e-06)
(0 -0.000718857 1.31645e-06)
(0 -0.00083437 1.91148e-06)
(0 -0.000830749 1.57971e-06)
(0 -0.000647969 1.16172e-06)
(0 -0.000644613 1.31238e-06)
(0 -0.000981783 2.49316e-06)
(0 -0.000814768 1.80112e-06)
(0 -0.000635096 1.17782e-06)
(0 -0.000605508 1.05865e-06)
(0 -0.000802154 1.80946e-06)
(0 -0.000756217 1.59703e-06)
(0 -0.00075241 1.52679e-06)
(0 -0.000646542 1.45642e-06)
(0 -0.000830843 2.06951e-06)
(0 -0.000669067 1.57654e-06)
(0 -0.000664774 1.4739e-06)
(0 -0.000660527 1.46471e-06)
(0 -0.000656075 1.58992e-06)
(0 -0.000854185 2.57744e-06)
(0 -0.000904807 2.63682e-06)
(0 -0.000586975 1.28632e-06)
(0 -0.000582591 1.20913e-06)
(0 -0.000664865 1.28622e-06)
(0 -0.000629159 1.16067e-06)
(0 -0.000570378 1.22533e-06)
(0 -0.000865911 2.7017e-06)
(0 -0.000644826 1.65518e-06)
(0 -0.000608763 1.59892e-06)
(0 -0.000744513 2.14359e-06)
(0 -0.000737868 2.26126e-06)
(0 -0.000565115 1.60792e-06)
(0 -0.000818655 2.92376e-06)
(0 -0.000715339 2.33721e-06)
(0 -0.000573733 1.22753e-06)
(0 -0.000627446 1.35712e-06)
(0 -0.000589805 1.58483e-06)
(0 -0.000776034 2.75486e-06)
(0 -0.000677116 1.99189e-06)
(0 -0.00051744 1.10341e-06)
(0 -0.000747183 2.5144e-06)
(0 -0.000503508 1.06255e-06)
(0 -0.000545311 7.90461e-07)
(0 -0.000565392 8.99098e-07)
(0 -0.000555627 1.47592e-06)
(0 -0.000644255 3.08924e-06)
)
;

boundaryField
{
    inlet
    {
        type            fixedValue;
        value           uniform (0 -0.0005 0);
    }
    outlet
    {
        type            fluxCorrectedVelocity;
        phi             phi.gas;
        rho             rho.gas;
        value           uniform (0 0 0);
    }
    walls
    {
        type            fixedValue;
        value           uniform (0 0 0);
    }
}


// ************************************************************************* //
