/*--------------------------------*- C++ -*----------------------------------*\
| =========                 |                                                 |
| \\      /  F ield         | foam-extend: Open Source CFD                    |
|  \\    /   O peration     | Version:     5.0                                |
|   \\  /    A nd           | Web:         http://www.foam-extend.org         |
|    \\/     M anipulation  |                                                 |
\*---------------------------------------------------------------------------*/
FoamFile
{
    version     2.0;
    format      ascii;
    class       volVectorField;
    location    "10000";
    object      U.oil;
}
// * * * * * * * * * * * * * * * * * * * * * * * * * * * * * * * * * * * * * //

dimensions      [0 1 -1 0 0 0 0];

internalField   nonuniform List<vector> 
1000
(
(0 -0.000585859 -6.8796e-06)
(0 -0.000647092 -4.25984e-06)
(0 -0.000465589 -1.92532e-06)
(0 -0.000535385 -1.48851e-06)
(0 -0.000440191 -8.53356e-07)
(0 -0.000593582 -8.16111e-07)
(0 -0.000629198 -6.15958e-07)
(0 -0.000670024 -4.63368e-07)
(0 -0.000557702 -2.65922e-07)
(0 -0.000501536 -1.55849e-07)
(0 -0.000501292 -8.82593e-08)
(0 -0.000626468 -3.72036e-08)
(0 -0.000527547 2.66158e-08)
(0 -0.000556974 9.10708e-08)
(0 -0.000557227 1.61343e-07)
(0 -0.000456245 2.00107e-07)
(0 -0.000418668 2.6012e-07)
(0 -0.000457401 3.88337e-07)
(0 -0.000672186 7.61974e-07)
(0 -0.000439533 6.5377e-07)
(0 -0.000596696 1.14879e-06)
(0 -0.000424523 1.04973e-06)
(0 -0.000539289 1.72391e-06)
(0 -0.000573534 2.46419e-06)
(0 -0.000695619 4.42201e-06)
(0 -0.00055878 6.11558e-06)
(0 -0.000476799 1.01467e-05)
(0 -0.00064048 1.82715e-05)
(0 -0.000531727 -6.78863e-06)
(0 -0.000479811 -1.75258e-05)
(0 -0.000485236 -1.4406e-05)
(0 -0.000456179 -8.7217e-06)
(0 -0.000372815 -5.06893e-06)
(0 -0.000345549 -3.93416e-06)
(0 -0.000380461 -3.79537e-06)
(0 -0.00028844 -2.5239e-06)
(0 -0.000278472 -2.2398e-06)
(0 -0.000282262 -2.19977e-06)
(0 -0.000396671 -3.09092e-06)
(0 -0.000326728 -2.44392e-06)
(0 -0.000337725 -2.47583e-06)
(0 -0.000350532 -2.61503e-06)
(0 -0.000307229 -2.31082e-06)
(0 -0.0002721 -1.97921e-06)
(0 -0.000279836 -2.05047e-06)
(0 -0.000288721 -2.08432e-06)
(0 -0.000255835 -1.89538e-06)
(0 -0.000351577 -2.60298e-06)
(0 -0.000323605 -2.41292e-06)
(0 -0.000230431 -1.67392e-06)
(0 -0.000215579 -1.55325e-06)
(0 -0.000269986 -1.97012e-06)
(0 -0.000206676 -1.5306e-06)
(0 -0.000232476 -1.85325e-06)
(0 -0.000303809 -2.46914e-06)
(0 -0.000247934 -1.94738e-06)
(0 -0.00027334 -2.14969e-06)
(0 -0.00018568 -1.45813e-06)
(0 -0.000173412 -1.38939e-06)
(0 -0.000168866 -1.37691e-06)
(0 -0.000179533 -1.4371e-06)
(0 -0.000183359 -1.54341e-06)
(0 -0.000178586 -1.57888e-06)
(0 -0.000165789 -1.47378e-06)
(0 -0.000237382 -2.14359e-06)
(0 -0.00014405 -1.34164e-06)
(0 -0.000159787 -1.47268e-06)
(0 -0.000162881 -1.61267e-06)
(0 -0.000198047 -1.99733e-06)
(0 -0.000205604 -2.17343e-06)
(0 -0.000142206 -1.44661e-06)
(0 -0.000193342 -2.06523e-06)
(0 -0.000140315 -1.46358e-06)
(0 -0.000122983 -1.2995e-06)
(0 -0.000113136 -1.19711e-06)
(0 -0.000103946 -1.18917e-06)
(0 -0.000119766 -1.43389e-06)
(0 -9.9603e-05 -1.19285e-06)
(0 -0.000115515 -1.45401e-06)
(0 -9.98118e-05 -1.25997e-06)
(0 -9.06268e-05 -1.16605e-06)
(0 -9.99437e-05 -1.33921e-06)
(0 -0.000121025 -1.78623e-06)
(0 -7.79675e-05 -1.08573e-06)
(0 -8.08791e-05 -1.17267e-06)
(0 -7.60343e-05 -1.17052e-06)
(0 -7.11277e-05 -1.16788e-06)
(0 -6.62004e-05 -1.11031e-06)
(0 -6.13373e-05 -9.93156e-07)
(0 -5.1095e-05 -8.53111e-07)
(0 -4.6366e-05 -8.01784e-07)
(0 -3.78856e-05 -6.81501e-07)
(0 -4.03976e-05 -8.63667e-07)
(0 -4.50695e-05 -1.06402e-06)
(0 -2.95423e-05 -6.55261e-07)
(0 -2.75707e-05 -6.16923e-07)
(0 -1.70681e-05 -4.31073e-07)
(0 -1.51317e-05 -4.45096e-07)
(0 -9.08964e-06 -4.08265e-07)
(0 -4.51491e-06 -2.22079e-07)
(0 -0.000492621 -1.34495e-05)
(0 -0.000489142 -8.31416e-06)
(0 -0.000537004 -6.07084e-06)
(0 -0.000634349 -4.96402e-06)
(0 -0.000674 -3.73203e-06)
(0 -0.000560063 -2.21594e-06)
(0 -0.000670683 -1.89682e-06)
(0 -0.0005909 -1.18298e-06)
(0 -0.000418116 -5.77726e-07)
(0 -0.000557095 -5.01841e-07)
(0 -0.000455606 -2.3244e-07)
(0 -0.000501061 -8.58398e-08)
(0 -0.000501058 7.42245e-08)
(0 -0.000589596 2.81559e-07)
(0 -0.000557073 4.71071e-07)
(0 -0.000456093 5.84761e-07)
(0 -0.000590817 1.07463e-06)
(0 -0.000558757 1.39137e-06)
(0 -0.000530332 1.76674e-06)
(0 -0.000420882 1.84269e-06)
(0 -0.000440594 2.49639e-06)
(0 -0.000565296 4.09358e-06)
(0 -0.000538281 4.95908e-06)
(0 -0.000686002 8.17952e-06)
(0 -0.000518123 8.55495e-06)
(0 -0.000614542 1.63949e-05)
(0 -0.000500615 2.33038e-05)
(0 -0.000476159 1.22493e-05)
(0 -0.000389782 -2.31848e-05)
(0 -0.000375476 -4.54402e-05)
(0 -0.000290581 -3.00517e-05)
(0 -0.000340906 -2.48362e-05)
(0 -0.00038449 -1.98271e-05)
(0 -0.000278194 -1.12636e-05)
(0 -0.000295306 -1.02465e-05)
(0 -0.000235224 -7.18994e-06)
(0 -0.000262619 -7.6092e-06)
(0 -0.000255897 -7.08349e-06)
(0 -0.000249913 -6.84003e-06)
(0 -0.000257408 -6.80934e-06)
(0 -0.000299914 -7.85975e-06)
(0 -0.000261432 -6.89459e-06)
(0 -0.000191604 -4.95032e-06)
(0 -0.000214327 -5.42367e-06)
(0 -0.000200209 -5.13238e-06)
(0 -0.000254259 -6.52875e-06)
(0 -0.000201576 -5.26275e-06)
(0 -0.00025979 -6.78151e-06)
(0 -0.000203764 -5.26232e-06)
(0 -0.000210212 -5.41481e-06)
(0 -0.000195566 -4.92974e-06)
(0 -0.000225743 -5.79205e-06)
(0 -0.000221495 -5.79142e-06)
(0 -0.000153193 -4.12636e-06)
(0 -0.000163246 -4.48929e-06)
(0 -0.00022013 -6.0722e-06)
(0 -0.000230524 -6.35838e-06)
(0 -0.000169092 -4.57173e-06)
(0 -0.000143322 -3.89801e-06)
(0 -0.000133618 -3.71475e-06)
(0 -0.000196056 -5.48141e-06)
(0 -0.000170346 -4.93944e-06)
(0 -0.000129672 -3.82921e-06)
(0 -0.00013817 -4.15075e-06)
(0 -0.000189188 -5.8177e-06)
(0 -0.00011471 -3.59646e-06)
(0 -0.000179061 -5.66641e-06)
(0 -0.000113242 -3.66386e-06)
(0 -0.000149172 -4.97857e-06)
(0 -0.000111701 -3.86636e-06)
(0 -0.000159479 -5.57704e-06)
(0 -0.000136751 -4.89159e-06)
(0 -0.000150756 -5.31802e-06)
(0 -0.000128996 -4.55085e-06)
(0 -0.000141986 -4.88821e-06)
(0 -8.52426e-05 -2.97162e-06)
(0 -8.16102e-05 -2.95687e-06)
(0 -8.5305e-05 -3.14111e-06)
(0 -8.15819e-05 -3.17978e-06)
(0 -8.16518e-05 -3.22097e-06)
(0 -8.62515e-05 -3.55893e-06)
(0 -0.000104986 -4.45657e-06)
(0 -6.78546e-05 -3.08755e-06)
(0 -8.89486e-05 -3.97034e-06)
(0 -7.96595e-05 -3.54022e-06)
(0 -6.73366e-05 -3.10558e-06)
(0 -4.9539e-05 -2.35861e-06)
(0 -4.55755e-05 -2.33331e-06)
(0 -5.98633e-05 -3.14078e-06)
(0 -4.9368e-05 -2.61083e-06)
(0 -4.50717e-05 -2.44496e-06)
(0 -5.24264e-05 -2.96647e-06)
(0 -3.71503e-05 -2.23826e-06)
(0 -2.6498e-05 -1.73986e-06)
(0 -2.74365e-05 -1.88497e-06)
(0 -2.99146e-05 -2.0427e-06)
(0 -1.80349e-05 -1.20046e-06)
(0 -1.90044e-05 -1.40615e-06)
(0 -7.31334e-06 -7.4357e-07)
(0 -4.4225e-06 -6.22183e-07)
(0 -0.000444247 -1.43029e-05)
(0 -0.000599198 -1.36733e-05)
(0 -0.000676518 -1.10004e-05)
(0 -0.00053226 -6.21521e-06)
(0 -0.000593227 -4.99901e-06)
(0 -0.000457426 -2.78368e-06)
(0 -0.000478447 -2.09315e-06)
(0 -0.000436338 -1.35541e-06)
(0 -0.000589856 -1.26655e-06)
(0 -0.000668132 -9.35765e-07)
(0 -0.000477073 -3.78076e-07)
(0 -0.000626055 -1.6517e-07)
(0 -0.000500845 1.18128e-07)
(0 -0.000500927 3.77149e-07)
(0 -0.00058953 7.85981e-07)
(0 -0.000668507 1.35391e-06)
(0 -0.000418161 1.2051e-06)
(0 -0.000418647 1.65826e-06)
(0 -0.000457437 2.43515e-06)
(0 -0.000530811 3.73033e-06)
(0 -0.000632148 5.76436e-06)
(0 -0.00044138 5.12628e-06)
(0 -0.00053671 7.77676e-06)
(0 -0.000512336 9.05471e-06)
(0 -0.000467172 9.82647e-06)
(0 -0.000637876 1.54402e-05)
(0 -0.000514597 1.17656e-05)
(0 -0.000431491 -1.41359e-05)
(0 -0.000443291 -3.88755e-05)
(0 -0.000318793 -3.20525e-05)
(0 -0.000419258 -3.64383e-05)
(0 -0.000296861 -2.13793e-05)
(0 -0.000266604 -1.5095e-05)
(0 -0.000279981 -1.33153e-05)
(0 -0.000283877 -1.1468e-05)
(0 -0.000327381 -1.20629e-05)
(0 -0.00025408 -9.04342e-06)
(0 -0.000309815 -1.04843e-05)
(0 -0.000284949 -9.38741e-06)
(0 -0.000316538 -9.98089e-06)
(0 -0.000291107 -9.10999e-06)
(0 -0.000206837 -6.36171e-06)
(0 -0.000234433 -6.95363e-06)
(0 -0.000273378 -8.01963e-06)
(0 -0.000214307 -6.28467e-06)
(0 -0.000210015 -6.1583e-06)
(0 -0.00017861 -5.33394e-06)
(0 -0.000201211 -6.05065e-06)
(0 -0.000247231 -7.32144e-06)
(0 -0.000161156 -4.74964e-06)
(0 -0.000253389 -7.46116e-06)
(0 -0.000233578 -6.94786e-06)
(0 -0.000166281 -4.96725e-06)
(0 -0.000162566 -4.85422e-06)
(0 -0.000175056 -5.30213e-06)
(0 -0.000171372 -5.40411e-06)
(0 -0.00016769 -5.32064e-06)
(0 -0.000182521 -5.6645e-06)
(0 -0.000169213 -5.18986e-06)
(0 -0.000142556 -4.42163e-06)
(0 -0.000192007 -6.19886e-06)
(0 -0.000142758 -4.70815e-06)
(0 -0.000162685 -5.36556e-06)
(0 -0.000158928 -5.2988e-06)
(0 -0.000155312 -5.215e-06)
(0 -0.000113153 -3.79626e-06)
(0 -0.00011988 -4.19426e-06)
(0 -0.000142781 -5.00779e-06)
(0 -0.000156801 -5.75795e-06)
(0 -0.000143866 -5.32436e-06)
(0 -0.000107738 -4.07091e-06)
(0 -0.000109318 -4.22257e-06)
(0 -0.00010583 -4.06072e-06)
(0 -8.91777e-05 -3.48668e-06)
(0 -0.000108888 -4.23411e-06)
(0 -0.0001112 -4.20847e-06)
(0 -0.000101615 -3.91197e-06)
(0 -0.000116727 -4.56341e-06)
(0 -8.53321e-05 -3.4517e-06)
(0 -0.000115407 -4.73708e-06)
(0 -8.29612e-05 -3.53354e-06)
(0 -9.98432e-05 -4.33469e-06)
(0 -6.31354e-05 -2.76993e-06)
(0 -6.52056e-05 -2.92597e-06)
(0 -8.06118e-05 -3.52759e-06)
(0 -6.17112e-05 -2.75241e-06)
(0 -7.23988e-05 -3.16698e-06)
(0 -4.99563e-05 -2.26031e-06)
(0 -4.41919e-05 -2.11301e-06)
(0 -4.44176e-05 -2.16105e-06)
(0 -4.75171e-05 -2.3967e-06)
(0 -3.54758e-05 -1.88412e-06)
(0 -3.30872e-05 -1.85787e-06)
(0 -3.05274e-05 -1.80706e-06)
(0 -2.26274e-05 -1.39157e-06)
(0 -1.83419e-05 -1.21269e-06)
(0 -2.26357e-05 -1.51947e-06)
(0 -1.80144e-05 -1.32158e-06)
(0 -7.51474e-06 -6.31142e-07)
(0 -4.37753e-06 -6.32229e-07)
(0 -0.000481984 -1.64357e-05)
(0 -0.000532001 -1.37482e-05)
(0 -0.000593454 -1.142e-05)
(0 -0.000437807 -6.21492e-06)
(0 -0.000456961 -4.75556e-06)
(0 -0.000627506 -4.75862e-06)
(0 -0.000436095 -2.38943e-06)
(0 -0.00052752 -2.05786e-06)
(0 -0.000527245 -1.42364e-06)
(0 -0.00055634 -9.80102e-07)
(0 -0.000667462 -6.64365e-07)
(0 -0.000455041 -1.48958e-07)
(0 -0.000476713 1.45976e-07)
(0 -0.000417173 4.02549e-07)
(0 -0.000500728 8.55789e-07)
(0 -0.000556583 1.44921e-06)
(0 -0.000668294 2.48762e-06)
(0 -0.000668866 3.44353e-06)
(0 -0.000456601 3.18411e-06)
(0 -0.000529605 4.91986e-06)
(0 -0.000630415 7.67009e-06)
(0 -0.00050599 7.89727e-06)
(0 -0.000597891 1.1636e-05)
(0 -0.000464618 1.08065e-05)
(0 -0.000541918 1.39705e-05)
(0 -0.000578287 1.32897e-05)
(0 -0.000497305 -3.31664e-06)
(0 -0.000634644 -4.13354e-05)
(0 -0.000439744 -3.14772e-05)
(0 -0.000324987 -2.4641e-05)
(0 -0.000310779 -2.20669e-05)
(0 -0.00026013 -1.60793e-05)
(0 -0.000396755 -2.05907e-05)
(0 -0.000235768 -1.05152e-05)
(0 -0.000341762 -1.36657e-05)
(0 -0.000294745 -1.10418e-05)
(0 -0.000213481 -7.57721e-06)
(0 -0.00024898 -8.59396e-06)
(0 -0.000201606 -6.75028e-06)
(0 -0.000296183 -9.65868e-06)
(0 -0.000201233 -6.29503e-06)
(0 -0.000188108 -5.79457e-06)
(0 -0.00023265 -7.12747e-06)
(0 -0.000240865 -7.38639e-06)
(0 -0.000212332 -6.4402e-06)
(0 -0.0002783 -8.31339e-06)
(0 -0.000177553 -5.32112e-06)
(0 -0.000199919 -6.1105e-06)
(0 -0.00021792 -6.67864e-06)
(0 -0.00024087 -7.25668e-06)
(0 -0.000222652 -6.76983e-06)
(0 -0.00019541 -5.91207e-06)
(0 -0.000214375 -6.50671e-06)
(0 -0.000187984 -5.6201e-06)
(0 -0.000219262 -6.62096e-06)
(0 -0.000149076 -4.62832e-06)
(0 -0.000152216 -4.78524e-06)
(0 -0.000172506 -5.42458e-06)
(0 -0.000178357 -5.57682e-06)
(0 -0.000196765 -6.21098e-06)
(0 -0.000146455 -4.71251e-06)
(0 -0.000124748 -4.07211e-06)
(0 -0.000132525 -4.44879e-06)
(0 -0.000123295 -4.16036e-06)
(0 -0.000162958 -5.61345e-06)
(0 -0.000180735 -6.22349e-06)
(0 -0.000131977 -4.61091e-06)
(0 -0.000161143 -5.71145e-06)
(0 -0.000108774 -4.02837e-06)
(0 -0.000115543 -4.38542e-06)
(0 -0.00013109 -4.95214e-06)
(0 -9.49418e-05 -3.62359e-06)
(0 -0.000130219 -4.93643e-06)
(0 -8.88931e-05 -3.39994e-06)
(0 -9.7924e-05 -3.87213e-06)
(0 -0.000110483 -4.35354e-06)
(0 -9.11225e-05 -3.66728e-06)
(0 -0.000102428 -4.31666e-06)
(0 -8.01857e-05 -3.39545e-06)
(0 -9.40493e-05 -4.21665e-06)
(0 -7.68946e-05 -3.50304e-06)
(0 -7.31358e-05 -3.37802e-06)
(0 -6.60737e-05 -3.05774e-06)
(0 -5.9375e-05 -2.88598e-06)
(0 -8.66638e-05 -4.2482e-06)
(0 -6.11073e-05 -3.07379e-06)
(0 -7.20308e-05 -3.6854e-06)
(0 -6.35649e-05 -3.28458e-06)
(0 -5.27182e-05 -2.74833e-06)
(0 -5.8202e-05 -3.1082e-06)
(0 -4.7566e-05 -2.63002e-06)
(0 -4.60627e-05 -2.59286e-06)
(0 -3.70382e-05 -2.15582e-06)
(0 -2.52449e-05 -1.53377e-06)
(0 -2.44282e-05 -1.52208e-06)
(0 -2.24404e-05 -1.50993e-06)
(0 -2.18157e-05 -1.68913e-06)
(0 -1.36536e-05 -1.24859e-06)
(0 -1.08551e-05 -1.03202e-06)
(0 -4.34629e-06 -6.16888e-07)
(0 -0.000669284 -2.33846e-05)
(0 -0.00041814 -1.13803e-05)
(0 -0.000589971 -1.21998e-05)
(0 -0.000435801 -6.7357e-06)
(0 -0.000417419 -4.7677e-06)
(0 -0.000435379 -3.64051e-06)
(0 -0.000526861 -3.19127e-06)
(0 -0.000435125 -1.87901e-06)
(0 -0.000667073 -1.99492e-06)
(0 -0.000454768 -8.87103e-07)
(0 -0.00058848 -6.47259e-07)
(0 -0.000588462 -2.09743e-07)
(0 -0.000416831 1.4647e-07)
(0 -0.000416854 4.55021e-07)
(0 -0.000476456 9.21644e-07)
(0 -0.000454882 1.34565e-06)
(0 -0.000526857 2.24191e-06)
(0 -0.000667652 3.96324e-06)
(0 -0.000626362 5.09363e-06)
(0 -0.000590161 6.48594e-06)
(0 -0.000418746 6.13472e-06)
(0 -0.00041986 8.05595e-06)
(0 -0.000505885 1.23902e-05)
(0 -0.000462687 1.39376e-05)
(0 -0.000428023 1.52018e-05)
(0 -0.000516669 1.5916e-05)
(0 -0.000427832 -1.65965e-05)
(0 -0.000374988 -4.18957e-05)
(0 -0.000512542 -5.24074e-05)
(0 -0.000312239 -2.34347e-05)
(0 -0.000326746 -2.0872e-05)
(0 -0.000277216 -1.49436e-05)
(0 -0.000263141 -1.29073e-05)
(0 -0.000349879 -1.48356e-05)
(0 -0.00031991 -1.22876e-05)
(0 -0.000251169 -9.03994e-06)
(0 -0.000243923 -8.24528e-06)
(0 -0.000226383 -7.48774e-06)
(0 -0.000231206 -7.35236e-06)
(0 -0.000197119 -6.11637e-06)
(0 -0.000309685 -9.33066e-06)
(0 -0.000227498 -6.70715e-06)
(0 -0.000222761 -6.60123e-06)
(0 -0.000218216 -6.55843e-06)
(0 -0.000203457 -6.04468e-06)
(0 -0.00026241 -7.81211e-06)
(0 -0.000216867 -6.28366e-06)
(0 -0.000175254 -5.12627e-06)
(0 -0.000179314 -5.30326e-06)
(0 -0.000184015 -5.48395e-06)
(0 -0.000189375 -5.68909e-06)
(0 -0.00023268 -6.96318e-06)
(0 -0.000158273 -4.83465e-06)
(0 -0.000238325 -7.27436e-06)
(0 -0.000234335 -7.12508e-06)
(0 -0.000163817 -4.93436e-06)
(0 -0.000160117 -4.90061e-06)
(0 -0.000173185 -5.39764e-06)
(0 -0.00018975 -5.92829e-06)
(0 -0.00015769 -5.04819e-06)
(0 -0.000171435 -5.41451e-06)
(0 -0.000167703 -5.37575e-06)
(0 -0.000127738 -4.16825e-06)
(0 -0.000191722 -6.39763e-06)
(0 -0.000140308 -4.73907e-06)
(0 -0.000124091 -4.28352e-06)
(0 -0.000132876 -4.62135e-06)
(0 -0.000162337 -5.68484e-06)
(0 -0.000126413 -4.5446e-06)
(0 -0.000101926 -3.72576e-06)
(0 -0.000107665 -3.96744e-06)
(0 -0.0001092 -4.10106e-06)
(0 -0.000139384 -5.32615e-06)
(0 -0.000135583 -5.1064e-06)
(0 -9.97455e-05 -3.83663e-06)
(0 -0.000135606 -5.30292e-06)
(0 -0.000131807 -5.13612e-06)
(0 -7.90067e-05 -3.15005e-06)
(0 -0.00011459 -4.59908e-06)
(0 -7.30266e-05 -3.04867e-06)
(0 -6.94874e-05 -2.9472e-06)
(0 -7.96769e-05 -3.40789e-06)
(0 -8.48137e-05 -3.63252e-06)
(0 -6.01208e-05 -2.62694e-06)
(0 -7.63125e-05 -3.48209e-06)
(0 -5.88727e-05 -2.72615e-06)
(0 -5.7927e-05 -2.80371e-06)
(0 -4.6973e-05 -2.37709e-06)
(0 -5.23426e-05 -2.71234e-06)
(0 -4.83958e-05 -2.55759e-06)
(0 -4.21845e-05 -2.24384e-06)
(0 -3.63137e-05 -2.01657e-06)
(0 -3.06461e-05 -1.83687e-06)
(0 -2.77182e-05 -1.73776e-06)
(0 -3.11063e-05 -2.13316e-06)
(0 -3.0531e-05 -2.11784e-06)
(0 -2.23744e-05 -1.74798e-06)
(0 -1.26705e-05 -1.22915e-06)
(0 -1.00281e-05 -1.18736e-06)
(0 -4.4363e-06 -7.56943e-07)
(0 -0.000498038 -1.75385e-05)
(0 -0.000452939 -1.24149e-05)
(0 -0.000498526 -1.03698e-05)
(0 -0.000525084 -8.15372e-06)
(0 -0.000587174 -6.73081e-06)
(0 -0.00058743 -4.92529e-06)
(0 -0.000475698 -2.88719e-06)
(0 -0.00041634 -1.80046e-06)
(0 -0.00055522 -1.66182e-06)
(0 -0.0006247 -1.2185e-06)
(0 -0.000454363 -4.98464e-07)
(0 -0.00049982 -1.74865e-07)
(0 -0.00055536 2.02266e-07)
(0 -0.000588018 6.5594e-07)
(0 -0.000587992 1.16339e-06)
(0 -0.000624703 1.89876e-06)
(0 -0.000555253 2.44544e-06)
(0 -0.00062463 3.87796e-06)
(0 -0.000624651 5.38951e-06)
(0 -0.000526146 6.25451e-06)
(0 -0.000434937 7.0699e-06)
(0 -0.000626202 1.37743e-05)
(0 -0.000478612 1.3973e-05)
(0 -0.000673575 2.50115e-05)
(0 -0.000460456 1.8988e-05)
(0 -0.000655311 5.37161e-06)
(0 -0.000456803 -4.31481e-05)
(0 -0.000500827 -5.85264e-05)
(0 -0.000306872 -2.95392e-05)
(0 -0.000419778 -3.16218e-05)
(0 -0.000282072 -1.76693e-05)
(0 -0.000308757 -1.60975e-05)
(0 -0.00026697 -1.26537e-05)
(0 -0.000234154 -1.01508e-05)
(0 -0.000349929 -1.40156e-05)
(0 -0.000284359 -1.06609e-05)
(0 -0.000277424 -9.83136e-06)
(0 -0.000221083 -7.44159e-06)
(0 -0.000206068 -6.60992e-06)
(0 -0.000310103 -9.6845e-06)
(0 -0.000227842 -7.02735e-06)
(0 -0.000248257 -7.52712e-06)
(0 -0.000274349 -8.31877e-06)
(0 -0.000195224 -5.91214e-06)
(0 -0.000221549 -6.61288e-06)
(0 -0.000206243 -6.27793e-06)
(0 -0.000270309 -8.10603e-06)
(0 -0.00026577 -7.90794e-06)
(0 -0.000261292 -7.71086e-06)
(0 -0.000256972 -7.57221e-06)
(0 -0.000210241 -6.117e-06)
(0 -0.000232588 -6.77805e-06)
(0 -0.000165625 -4.83501e-06)
(0 -0.000169786 -5.12865e-06)
(0 -0.000183938 -5.51009e-06)
(0 -0.000214536 -6.41699e-06)
(0 -0.000186969 -5.60233e-06)
(0 -0.000173419 -5.30161e-06)
(0 -0.000215766 -6.59251e-06)
(0 -0.000137375 -4.20625e-06)
(0 -0.000193646 -5.90411e-06)
(0 -0.000137512 -4.24494e-06)
(0 -0.000155604 -4.8544e-06)
(0 -0.000119854 -3.85722e-06)
(0 -0.000147826 -4.71768e-06)
(0 -0.000124347 -4.01599e-06)
(0 -0.00011557 -3.80529e-06)
(0 -0.000173426 -5.90802e-06)
(0 -0.000105171 -3.60754e-06)
(0 -0.000111192 -3.86726e-06)
(0 -0.000149053 -5.27506e-06)
(0 -0.000100381 -3.5561e-06)
(0 -9.69473e-05 -3.58307e-06)
(0 -0.000113719 -4.29956e-06)
(0 -0.000110105 -4.19345e-06)
(0 -9.61099e-05 -3.71612e-06)
(0 -9.73635e-05 -3.77149e-06)
(0 -9.88421e-05 -3.8497e-06)
(0 -9.52283e-05 -3.73866e-06)
(0 -7.52207e-05 -2.93518e-06)
(0 -7.16526e-05 -2.85153e-06)
(0 -7.47979e-05 -3.09124e-06)
(0 -7.8874e-05 -3.39445e-06)
(0 -8.42399e-05 -3.58806e-06)
(0 -7.57379e-05 -3.36433e-06)
(0 -8.12462e-05 -3.60818e-06)
(0 -6.8448e-05 -3.04258e-06)
(0 -4.99555e-05 -2.20779e-06)
(0 -4.41553e-05 -2.05244e-06)
(0 -4.22512e-05 -2.02222e-06)
(0 -4.99121e-05 -2.44462e-06)
(0 -4.88346e-05 -2.38265e-06)
(0 -3.38374e-05 -1.74317e-06)
(0 -3.70705e-05 -2.0308e-06)
(0 -2.38038e-05 -1.36584e-06)
(0 -3.11094e-05 -1.90395e-06)
(0 -2.67302e-05 -1.77611e-06)
(0 -1.36354e-05 -9.1781e-07)
(0 -8.93068e-06 -7.30805e-07)
(0 -4.10163e-06 -4.3461e-07)
(0 -0.000548798 -1.9175e-05)
(0 -0.000659466 -1.74144e-05)
(0 -0.000619456 -1.21337e-05)
(0 -0.000451384 -6.49735e-06)
(0 -0.000523519 -5.5063e-06)
(0 -0.000474282 -3.6254e-06)
(0 -0.000433471 -2.38906e-06)
(0 -0.000433789 -1.69929e-06)
(0 -0.000665492 -1.80135e-06)
(0 -0.000525576 -9.25729e-07)
(0 -0.000587539 -5.80477e-07)
(0 -0.000416219 -1.29091e-07)
(0 -0.000475681 1.61628e-07)
(0 -0.000454016 4.66592e-07)
(0 -0.000434189 7.92379e-07)
(0 -0.00043405 1.22266e-06)
(0 -0.000554368 2.28042e-06)
(0 -0.000415524 2.43711e-06)
(0 -0.000586177 4.85576e-06)
(0 -0.000452562 5.28371e-06)
(0 -0.000585197 9.64552e-06)
(0 -0.000497291 1.16085e-05)
(0 -0.000524363 1.73875e-05)
(0 -0.000502168 2.35737e-05)
(0 -0.000594713 2.51045e-05)
(0 -0.000651852 -2.92477e-05)
(0 -0.000450977 -4.83369e-05)
(0 -0.000447121 -4.46939e-05)
(0 -0.000485028 -3.85976e-05)
(0 -0.000331792 -2.17988e-05)
(0 -0.000279213 -1.51297e-05)
(0 -0.000366399 -1.7407e-05)
(0 -0.000280896 -1.19941e-05)
(0 -0.000301453 -1.16958e-05)
(0 -0.000277085 -1.03138e-05)
(0 -0.000221738 -7.94477e-06)
(0 -0.000205963 -7.23597e-06)
(0 -0.00021855 -7.38017e-06)
(0 -0.00031412 -1.02635e-05)
(0 -0.000242769 -7.73192e-06)
(0 -0.000302044 -9.43225e-06)
(0 -0.00024697 -7.52416e-06)
(0 -0.000207265 -6.34207e-06)
(0 -0.000177175 -5.25698e-06)
(0 -0.000245587 -7.3514e-06)
(0 -0.000185836 -5.62498e-06)
(0 -0.000200351 -6.10637e-06)
(0 -0.00016326 -4.93779e-06)
(0 -0.000191978 -5.85639e-06)
(0 -0.000163297 -4.9091e-06)
(0 -0.000230604 -6.93299e-06)
(0 -0.00024198 -7.24966e-06)
(0 -0.000237974 -7.10194e-06)
(0 -0.000151666 -4.52902e-06)
(0 -0.000214017 -6.40538e-06)
(0 -0.000159598 -4.86064e-06)
(0 -0.000182435 -5.60929e-06)
(0 -0.000133459 -4.05628e-06)
(0 -0.000156543 -4.87098e-06)
(0 -0.000161103 -5.07321e-06)
(0 -0.000200075 -6.35348e-06)
(0 -0.00016312 -5.11775e-06)
(0 -0.00015088 -4.85329e-06)
(0 -0.000126781 -4.04892e-06)
(0 -0.000181907 -5.97456e-06)
(0 -0.000147994 -4.79071e-06)
(0 -0.000162749 -5.30492e-06)
(0 -0.000126755 -4.34792e-06)
(0 -0.000137153 -4.70296e-06)
(0 -0.000119895 -4.15365e-06)
(0 -0.00010081 -3.60243e-06)
(0 -0.000150598 -5.35856e-06)
(0 -0.000121926 -4.42695e-06)
(0 -0.000101028 -3.76742e-06)
(0 -8.50161e-05 -3.1667e-06)
(0 -9.83909e-05 -3.77712e-06)
(0 -0.000105698 -4.02874e-06)
(0 -7.58969e-05 -2.94964e-06)
(0 -8.30916e-05 -3.28143e-06)
(0 -9.31064e-05 -3.74257e-06)
(0 -0.000100716 -4.17782e-06)
(0 -9.09428e-05 -3.77597e-06)
(0 -6.6628e-05 -2.94122e-06)
(0 -8.2222e-05 -3.66838e-06)
(0 -6.29221e-05 -2.8256e-06)
(0 -5.91502e-05 -2.76808e-06)
(0 -5.53239e-05 -2.57129e-06)
(0 -6.42702e-05 -2.90433e-06)
(0 -4.81933e-05 -2.21054e-06)
(0 -4.91854e-05 -2.37888e-06)
(0 -4.26442e-05 -2.26065e-06)
(0 -5.23441e-05 -2.89057e-06)
(0 -4.19539e-05 -2.29032e-06)
(0 -2.69287e-05 -1.57095e-06)
(0 -3.39782e-05 -2.06498e-06)
(0 -3.17142e-05 -2.07455e-06)
(0 -1.5581e-05 -1.20077e-06)
(0 -1.56533e-05 -1.25512e-06)
(0 -7.99238e-06 -7.64304e-07)
(0 -4.5915e-06 -7.60911e-07)
(0 -0.000514859 -1.73141e-05)
(0 -0.000654243 -1.54964e-05)
(0 -0.000518539 -8.68445e-06)
(0 -0.000581592 -6.94631e-06)
(0 -0.00047215 -4.04667e-06)
(0 -0.000522981 -3.22291e-06)
(0 -0.000622039 -2.7466e-06)
(0 -0.000415176 -1.29812e-06)
(0 -0.000433585 -9.34596e-07)
(0 -0.000453547 -6.35044e-07)
(0 -0.000433978 -3.39966e-07)
(0 -0.000554618 -1.34527e-07)
(0 -0.000554618 1.53841e-07)
(0 -0.000453703 3.76828e-07)
(0 -0.000433827 6.40651e-07)
(0 -0.000474877 1.08726e-06)
(0 -0.000553566 1.86447e-06)
(0 -0.00052382 2.54317e-06)
(0 -0.000621041 4.32668e-06)
(0 -0.000619709 6.22555e-06)
(0 -0.00047084 6.89885e-06)
(0 -0.000469183 1.01884e-05)
(0 -0.000408682 1.3383e-05)
(0 -0.000404705 1.96667e-05)
(0 -0.000621694 1.53455e-05)
(0 -0.000593696 -5.14121e-05)
(0 -0.000549385 -5.88058e-05)
(0 -0.000437275 -3.84639e-05)
(0 -0.000336619 -2.47415e-05)
(0 -0.000349033 -1.99821e-05)
(0 -0.000331652 -1.49255e-05)
(0 -0.000271464 -1.09191e-05)
(0 -0.000248697 -9.22071e-06)
(0 -0.000332331 -1.16771e-05)
(0 -0.000346251 -1.15848e-05)
(0 -0.000298108 -9.52762e-06)
(0 -0.000213796 -6.65834e-06)
(0 -0.000207717 -6.35013e-06)
(0 -0.000202216 -6.29491e-06)
(0 -0.000268113 -8.11876e-06)
(0 -0.000223113 -6.74588e-06)
(0 -0.000273992 -7.95366e-06)
(0 -0.000178466 -5.06441e-06)
(0 -0.000233443 -6.37838e-06)
(0 -0.00017886 -4.91543e-06)
(0 -0.000167557 -4.69788e-06)
(0 -0.000163729 -4.63504e-06)
(0 -0.000227013 -6.51648e-06)
(0 -0.000157195 -4.48991e-06)
(0 -0.000247309 -7.11426e-06)
(0 -0.000173162 -4.95113e-06)
(0 -0.000198381 -5.7542e-06)
(0 -0.000151851 -4.42878e-06)
(0 -0.000180083 -5.20214e-06)
(0 -0.000186511 -5.35444e-06)
(0 -0.000164444 -4.76982e-06)
(0 -0.000133626 -3.97705e-06)
(0 -0.000209853 -6.11104e-06)
(0 -0.000206189 -6.25034e-06)
(0 -0.000143855 -4.44231e-06)
(0 -0.000147529 -4.56516e-06)
(0 -0.00017005 -5.188e-06)
(0 -0.000117203 -3.63196e-06)
(0 -0.000172017 -5.34982e-06)
(0 -0.000111441 -3.55638e-06)
(0 -0.000144983 -4.61336e-06)
(0 -0.000170407 -5.49791e-06)
(0 -0.000124467 -4.14332e-06)
(0 -0.000109753 -3.67293e-06)
(0 -0.000123512 -4.20979e-06)
(0 -0.00011385 -3.91613e-06)
(0 -0.000116327 -4.10865e-06)
(0 -0.000101858 -3.62374e-06)
(0 -8.57429e-05 -3.07677e-06)
(0 -0.000124797 -4.47776e-06)
(0 -8.34347e-05 -3.12519e-06)
(0 -0.000123931 -4.76668e-06)
(0 -0.000105685 -3.97813e-06)
(0 -0.00011594 -4.44634e-06)
(0 -9.86512e-05 -3.91325e-06)
(0 -6.64217e-05 -2.70999e-06)
(0 -0.000102316 -4.15637e-06)
(0 -6.05499e-05 -2.50432e-06)
(0 -5.95573e-05 -2.53287e-06)
(0 -7.67019e-05 -3.32934e-06)
(0 -5.30953e-05 -2.37752e-06)
(0 -5.71496e-05 -2.60905e-06)
(0 -6.32097e-05 -2.9224e-06)
(0 -6.75622e-05 -3.05291e-06)
(0 -6.35402e-05 -2.95853e-06)
(0 -4.62912e-05 -2.28906e-06)
(0 -3.43617e-05 -1.8121e-06)
(0 -3.53676e-05 -1.91695e-06)
(0 -3.50076e-05 -1.98866e-06)
(0 -3.26639e-05 -2.04234e-06)
(0 -3.25785e-05 -2.02254e-06)
(0 -1.7155e-05 -1.04441e-06)
(0 -1.3357e-05 -9.36194e-07)
(0 -1.12298e-05 -9.47296e-07)
(0 -4.19913e-06 -5.29539e-07)
(0 -0.000536387 -1.56911e-05)
(0 -0.000486401 -8.72985e-06)
(0 -0.000466521 -5.49264e-06)
(0 -0.000656695 -5.29486e-06)
(0 -0.000449546 -2.54445e-06)
(0 -0.000450858 -1.81283e-06)
(0 -0.000584692 -1.67316e-06)
(0 -0.000523932 -1.05763e-06)
(0 -0.000586188 -8.13917e-07)
(0 -0.000664818 -5.98676e-07)
(0 -0.000433766 -2.18098e-07)
(0 -0.00055437 -8.54295e-08)
(0 -0.000586976 1.06686e-07)
(0 -0.000554244 2.99542e-07)
(0 -0.000553989 5.32915e-07)
(0 -0.000586137 8.77248e-07)
(0 -0.000497657 1.10207e-06)
(0 -0.000414038 1.33345e-06)
(0 -0.000495686 2.32153e-06)
(0 -0.000449123 3.09504e-06)
(0 -0.0006556 6.79759e-06)
(0 -0.000488475 7.87904e-06)
(0 -0.000510018 1.33663e-05)
(0 -0.000435328 1.62583e-05)
(0 -0.000411225 -5.98699e-06)
(0 -0.00047502 -3.72776e-05)
(0 -0.000447837 -3.33057e-05)
(0 -0.000358444 -2.46671e-05)
(0 -0.000254846 -1.49837e-05)
(0 -0.000234997 -1.17793e-05)
(0 -0.000317741 -1.27625e-05)
(0 -0.000349827 -1.22145e-05)
(0 -0.000299572 -9.94252e-06)
(0 -0.00029117 -9.54736e-06)
(0 -0.000322323 -1.03197e-05)
(0 -0.000261905 -7.77796e-06)
(0 -0.000208224 -5.67437e-06)
(0 -0.000248602 -6.76285e-06)
(0 -0.000181363 -4.91863e-06)
(0 -0.000212695 -5.77015e-06)
(0 -0.000172848 -4.67804e-06)
(0 -0.00022591 -6.08542e-06)
(0 -0.000199094 -5.12484e-06)
(0 -0.000217046 -5.29346e-06)
(0 -0.000240283 -5.73214e-06)
(0 -0.000188395 -4.70761e-06)
(0 -0.000217654 -5.41301e-06)
(0 -0.00015724 -4.10235e-06)
(0 -0.000237121 -6.08187e-06)
(0 -0.000158243 -4.11203e-06)
(0 -0.000228477 -5.69339e-06)
(0 -0.000177183 -4.44563e-06)
(0 -0.000165011 -4.13116e-06)
(0 -0.000134253 -3.3246e-06)
(0 -0.00021136 -5.33434e-06)
(0 -0.000173007 -4.37671e-06)
(0 -0.000126576 -3.1863e-06)
(0 -0.000199146 -5.16383e-06)
(0 -0.000132783 -3.59235e-06)
(0 -0.000118532 -3.19111e-06)
(0 -0.000126122 -3.3171e-06)
(0 -0.000151001 -4.06612e-06)
(0 -0.000139879 -3.84628e-06)
(0 -0.000136623 -3.85332e-06)
(0 -0.000126605 -3.46801e-06)
(0 -0.000145736 -4.08491e-06)
(0 -0.000151781 -4.34193e-06)
(0 -0.000102569 -2.97754e-06)
(0 -0.000120928 -3.46547e-06)
(0 -0.000101339 -3.02513e-06)
(0 -0.00010824 -3.28387e-06)
(0 -0.000105053 -3.24125e-06)
(0 -0.000101855 -3.13248e-06)
(0 -9.38212e-05 -2.83432e-06)
(0 -0.000100486 -3.15579e-06)
(0 -9.72373e-05 -3.22065e-06)
(0 -7.70778e-05 -2.68468e-06)
(0 -0.000100828 -3.4915e-06)
(0 -9.75426e-05 -3.43958e-06)
(0 -7.57187e-05 -2.70113e-06)
(0 -6.58242e-05 -2.28239e-06)
(0 -7.62278e-05 -2.79725e-06)
(0 -6.89799e-05 -2.52306e-06)
(0 -7.75741e-05 -2.83528e-06)
(0 -6.25203e-05 -2.39056e-06)
(0 -5.89492e-05 -2.32494e-06)
(0 -5.25629e-05 -2.08949e-06)
(0 -4.89049e-05 -2.07809e-06)
(0 -6.44875e-05 -2.86993e-06)
(0 -6.06588e-05 -2.71351e-06)
(0 -4.4136e-05 -2.007e-06)
(0 -3.80517e-05 -1.73842e-06)
(0 -4.06803e-05 -1.99761e-06)
(0 -3.66033e-05 -1.94496e-06)
(0 -2.19872e-05 -1.24258e-06)
(0 -1.95955e-05 -1.29163e-06)
(0 -2.37994e-05 -1.52218e-06)
(0 -1.91262e-05 -1.24088e-06)
(0 -9.79598e-06 -7.21527e-07)
(0 -4.1749e-06 -3.95862e-07)
(0 -0.00039394 -5.1597e-06)
(0 -0.000567444 -4.00925e-06)
(0 -0.000542059 -2.35315e-06)
(0 -0.000427291 -1.22962e-06)
(0 -0.000658374 -1.30842e-06)
(0 -0.000582889 -8.16007e-07)
(0 -0.000496642 -4.92604e-07)
(0 -0.000414568 -2.89355e-07)
(0 -0.000498067 -2.38778e-07)
(0 -0.000433444 -1.34641e-07)
(0 -0.000623378 -1.07998e-07)
(0 -0.000453468 -2.39473e-08)
(0 -0.000475057 3.00711e-08)
(0 -0.000524931 9.84544e-08)
(0 -0.00047469 1.58568e-07)
(0 -0.000414999 2.16104e-07)
(0 -0.000432483 3.3432e-07)
(0 -0.000620512 7.01176e-07)
(0 -0.000660038 1.09346e-06)
(0 -0.000518937 1.28212e-06)
(0 -0.000576361 2.1946e-06)
(0 -0.000461934 2.86747e-06)
(0 -0.00041452 4.60785e-06)
(0 -0.000459828 7.72653e-06)
(0 -0.000463772 -7.62708e-06)
(0 -0.000343957 -1.26802e-05)
(0 -0.000466826 -1.42259e-05)
(0 -0.000280386 -8.63872e-06)
(0 -0.000250769 -6.60023e-06)
(0 -0.000219345 -5.25967e-06)
(0 -0.000281887 -5.84983e-06)
(0 -0.000289248 -5.4935e-06)
(0 -0.000234216 -4.37286e-06)
(0 -0.000213878 -4.00785e-06)
(0 -0.000170416 -3.26895e-06)
(0 -0.000187734 -3.31769e-06)
(0 -0.000240649 -3.74918e-06)
(0 -0.000177955 -2.89892e-06)
(0 -0.000181557 -2.83829e-06)
(0 -0.000186436 -2.92804e-06)
(0 -0.000172807 -2.69435e-06)
(0 -0.000152958 -2.48748e-06)
(0 -0.000142267 -2.25066e-06)
(0 -0.000201035 -2.92104e-06)
(0 -0.000211698 -3.03711e-06)
(0 -0.00012896 -1.98825e-06)
(0 -0.000159639 -2.43793e-06)
(0 -0.000123226 -1.94722e-06)
(0 -0.000125453 -2.04288e-06)
(0 -0.000122444 -1.93861e-06)
(0 -0.000153792 -2.36941e-06)
(0 -0.000143188 -2.16967e-06)
(0 -0.000120893 -1.8401e-06)
(0 -0.000163676 -2.33755e-06)
(0 -0.000128468 -1.99396e-06)
(0 -0.000119737 -1.85755e-06)
(0 -0.000137161 -2.02516e-06)
(0 -0.000134844 -2.11731e-06)
(0 -0.000102982 -1.66344e-06)
(0 -0.000100241 -1.59595e-06)
(0 -0.000151359 -2.28063e-06)
(0 -0.000123955 -1.98068e-06)
(0 -9.45166e-05 -1.59925e-06)
(0 -8.79321e-05 -1.52378e-06)
(0 -0.000114795 -1.89024e-06)
(0 -0.000106459 -1.80757e-06)
(0 -0.000104166 -1.80358e-06)
(0 -8.74651e-05 -1.50524e-06)
(0 -0.000110802 -1.87589e-06)
(0 -8.72603e-05 -1.53169e-06)
(0 -8.47178e-05 -1.53218e-06)
(0 -8.21774e-05 -1.5087e-06)
(0 -7.9593e-05 -1.45655e-06)
(0 -0.000102031 -1.77803e-06)
(0 -0.000106654 -1.91372e-06)
(0 -6.70385e-05 -1.32595e-06)
(0 -6.43256e-05 -1.30485e-06)
(0 -7.13677e-05 -1.48086e-06)
(0 -6.54011e-05 -1.3893e-06)
(0 -5.69697e-05 -1.20651e-06)
(0 -8.47082e-05 -1.65717e-06)
(0 -6.0895e-05 -1.29615e-06)