/*--------------------------------*- C++ -*----------------------------------*\
| =========                 |                                                 |
| \\      /  F ield         | foam-extend: Open Source CFD                    |
|  \\    /   O peration     | Version:     5.0                                |
|   \\  /    A nd           | Web:         http://www.foam-extend.org         |
|    \\/     M anipulation  |                                                 |
\*---------------------------------------------------------------------------*/
FoamFile
{
    version     2.0;
    format      ascii;
    class       volVectorField;
    location    "5";
    object      U.gas;
}
// * * * * * * * * * * * * * * * * * * * * * * * * * * * * * * * * * * * * * //

dimensions      [0 1 -1 0 0 0 0];

internalField   nonuniform List<vector> 
100
(
(0.000125404 0 0)
(0.00028145 0 0)
(0.00042694 0 0)
(0.000568761 0 0)
(0.00070958 0 0)
(0.000848633 0 0)
(0.000988186 0 0)
(0.0011293 0 0)
(0.00127188 0 0)
(0.00141673 0 0)
(0.00156578 0 0)
(0.00171798 0 0)
(0.00187657 0 0)
(0.00204306 0 0)
(0.00222148 0 0)
(0.00241382 0 0)
(0.00263011 0 0)
(0.00288257 0 0)
(0.00319638 0 0)
(0.00361926 0 0)
(0.0042376 0 0)
(0.00521875 0 0)
(0.00634526 0 0)
(0.00623967 0 0)
(0.00575928 0 0)
(0.00557125 0 0)
(0.00546064 0 0)
(0.00533189 0 0)
(0.0053163 0 0)
(0.00538241 0 0)
(0.00539581 0 0)
(0.00534384 0 0)
(0.00526691 0 0)
(0.0052706 0 0)
(0.00525755 0 0)
(0.00528731 0 0)
(0.00528904 0 0)
(0.00526843 0 0)
(0.00532917 0 0)
(0.00536093 0 0)
(0.00537783 0 0)
(0.00537454 0 0)
(0.00535996 0 0)
(0.0054254 0 0)
(0.00550298 0 0)
(0.00548719 0 0)
(0.00550474 0 0)
(0.00550196 0 0)
(0.00547134 0 0)
(0.00550335 0 0)
(0.005568 0 0)
(0.00553335 0 0)
(0.00542198 0 0)
(0.00542523 0 0)
(0.00545678 0 0)
(0.00548816 0 0)
(0.00556877 0 0)
(0.00561754 0 0)
(0.00558448 0 0)
(0.00557199 0 0)
(0.00556897 0 0)
(0.00553827 0 0)
(0.00548839 0 0)
(0.00547324 0 0)
(0.00553674 0 0)
(0.00555299 0 0)
(0.00555279 0 0)
(0.00552442 0 0)
(0.00547699 0 0)
(0.00545955 0 0)
(0.00542703 0 0)
(0.00539419 0 0)
(0.00542508 0 0)
(0.00545517 0 0)
(0.00548906 0 0)
(0.00547177 0 0)
(0.00547272 0 0)
(0.00552035 0 0)
(0.00545728 0 0)
(0.0054746 0 0)
(0.00550752 0 0)
(0.00542929 0 0)
(0.00538271 0 0)
(0.00541501 0 0)
(0.00546194 0 0)
(0.00554103 0 0)
(0.00554047 0 0)
(0.00554181 0 0)
(0.00556943 0 0)
(0.00550555 0 0)
(0.00550611 0 0)
(0.00552073 0 0)
(0.00547205 0 0)
(0.00545874 0 0)
(0.00544352 0 0)
(0.00544566 0 0)
(0.00554535 0 0)
(0.00551133 0 0)
(0.00542073 0 0)
(0.00550184 0 0)
)
;

boundaryField
{
    inlet
    {
        type            fixedValue;
        value           uniform (0 0 0);
    }
    outlet
    {
        type            zeroGradient;
    }
    yzfaces
    {
        type            empty;
    }
}


// ************************************************************************* //
