/*--------------------------------*- C++ -*----------------------------------*\
| =========                 |                                                 |
| \\      /  F ield         | foam-extend: Open Source CFD                    |
|  \\    /   O peration     | Version:     5.0                                |
|   \\  /    A nd           | Web:         http://www.foam-extend.org         |
|    \\/     M anipulation  |                                                 |
\*---------------------------------------------------------------------------*/
FoamFile
{
    version     2.0;
    format      ascii;
    class       surfaceScalarField;
    location    "4";
    object      phi;
}
// * * * * * * * * * * * * * * * * * * * * * * * * * * * * * * * * * * * * * //

dimensions      [0 3 -1 0 0 0 0];

internalField   nonuniform List<scalar> 
99
(
1.22646e-06
1.22287e-06
1.22347e-06
1.22396e-06
1.22387e-06
1.22649e-06
1.22409e-06
1.22491e-06
1.225e-06
1.22286e-06
1.22303e-06
1.22396e-06
1.22158e-06
1.22191e-06
1.2236e-06
1.22115e-06
1.22115e-06
1.22226e-06
1.22087e-06
1.22712e-06
1.21232e-06
1.21811e-06
1.21408e-06
1.22206e-06
1.20133e-06
1.20867e-06
1.21496e-06
1.22788e-06
1.20221e-06
1.21894e-06
1.24663e-06
1.21589e-06
1.20029e-06
1.22945e-06
1.24483e-06
1.22959e-06
1.22945e-06
1.23656e-06
1.2213e-06
1.19171e-06
1.19261e-06
1.18468e-06
1.18486e-06
1.18454e-06
1.18474e-06
1.1921e-06
1.17808e-06
1.16249e-06
1.14739e-06
1.1397e-06
1.14775e-06
1.14788e-06
1.14722e-06
1.14778e-06
1.12496e-06
1.13251e-06
1.1469e-06
1.12504e-06
1.13202e-06
1.14698e-06
1.16267e-06
1.1477e-06
1.16999e-06
1.17034e-06
1.16992e-06
1.16963e-06
1.1775e-06
1.2001e-06
1.18532e-06
1.19139e-06
1.19914e-06
1.22891e-06
1.22974e-06
1.22235e-06
1.18489e-06
1.21476e-06
1.19947e-06
1.19893e-06
1.18509e-06
1.16911e-06
1.20678e-06
1.19223e-06
1.19132e-06
1.17738e-06
1.19245e-06
1.14834e-06
1.20049e-06
1.16972e-06
1.18503e-06
1.19244e-06
1.1762e-06
1.21394e-06
1.20061e-06
1.18433e-06
1.20032e-06
1.17726e-06
1.21384e-06
1.21489e-06
1.22838e-06
)
;

boundaryField
{
    inlet
    {
        type            calculated;
        value           uniform -1.225e-06;
    }
    outlet
    {
        type            calculated;
        value           uniform 1.23762e-06;
    }
    yzfaces
    {
        type            empty;
    }
}


// ************************************************************************* //
