/*--------------------------------*- C++ -*----------------------------------*\
| =========                 |                                                 |
| \\      /  F ield         | foam-extend: Open Source CFD                    |
|  \\    /   O peration     | Version:     5.0                                |
|   \\  /    A nd           | Web:         http://www.foam-extend.org         |
|    \\/     M anipulation  |                                                 |
\*---------------------------------------------------------------------------*/
FoamFile
{
    version     2.0;
    format      ascii;
    class       volScalarField;
    location    "2";
    object      YH2O;
}
// * * * * * * * * * * * * * * * * * * * * * * * * * * * * * * * * * * * * * //

dimensions      [0 0 0 0 0 0 0];

internalField   nonuniform List<scalar> 
100
(
0.98451
1.01776
0.987419
1.01249
0.980585
1.02722
0.969797
1.03329
0.949618
0.965881
0.852362
0.789486
0.670232
0.524466
0.406484
0.21228
0.157137
0.134853
0.0340727
0.0966222
-0.0134295
0.0123916
0.0529911
-0.0677198
0.0591742
-0.0235533
0.0246804
-0.0237804
0.0313913
0.0449311
0.0140756
0.0495153
-0.0107174
0.0065407
0.00401257
-0.0130783
-0.00255524
0.0214036
-0.0352475
-0.000900053
0.00180662
0.0214589
-0.00240506
0.0366387
-0.0451791
0.0179427
-0.0244694
-0.0301272
-0.00445802
0.0145388
-0.0350505
-0.00365516
-0.0261864
0.0160977
-0.0047537
-0.0270666
0.0075885
-0.0223695
0.00844596
-0.0231708
0.0159485
0.0113411
-0.0315471
-0.0236845
0.0263543
0.0117424
-0.00216471
0.00244202
-0.0146026
-0.00183623
-0.0414652
-0.00444202
-0.0381514
0.0185272
0.00665503
0.00917639
-0.00835007
0.00522799
0.0315718
-0.0109804
-0.0101654
0.0151223
-0.0345468
0.0459447
-0.0104358
-0.00390349
-0.00964015
0.0227111
-0.011486
0.018718
-0.026717
-0.0268752
-0.0196584
0.0181853
-0.0578805
-0.0292854
-0.0177446
-0.0206532
0.00666414
0.0114829
)
;

boundaryField
{
    inlet
    {
        type            calculated;
        value           uniform 1;
    }
    outlet
    {
        type            calculated;
        value           uniform 0.0114829;
    }
    yzfaces
    {
        type            empty;
    }
}


// ************************************************************************* //
