/*--------------------------------*- C++ -*----------------------------------*\
| =========                 |                                                 |
| \\      /  F ield         | foam-extend: Open Source CFD                    |
|  \\    /   O peration     | Version:     5.0                                |
|   \\  /    A nd           | Web:         http://www.foam-extend.org         |
|    \\/     M anipulation  |                                                 |
\*---------------------------------------------------------------------------*/
FoamFile
{
    version     2.0;
    format      ascii;
    class       volScalarField;
    location    "5";
    object      CO2.gas;
}
// * * * * * * * * * * * * * * * * * * * * * * * * * * * * * * * * * * * * * //

dimensions      [0 0 0 0 0 0 0];

internalField   nonuniform List<scalar> 
100
(
0.130737
0.113297
0.103385
0.0961646
0.0905164
0.0859316
0.0821128
0.0788982
0.0763363
0.0739743
0.071754
0.0696262
0.0678874
0.0664171
0.0649415
0.0635581
0.0623504
0.06106
0.0597581
0.0587965
0.0576621
0.0566168
0.0559664
0.0552927
0.0544818
0.0536957
0.0528709
0.0520947
0.0514678
0.050812
0.0502173
0.0497207
0.0491243
0.0484907
0.0478042
0.0472444
0.0467494
0.0461753
0.0457081
0.0451531
0.0446384
0.0441603
0.0437512
0.0433212
0.0429153
0.0425306
0.0421498
0.0417917
0.0414599
0.0410354
0.0407013
0.0403517
0.0399337
0.0395532
0.039174
0.0388349
0.0385384
0.0382389
0.0379181
0.0375921
0.0372763
0.037019
0.0366797
0.0363808
0.0361093
0.0358252
0.0355734
0.0353074
0.0350348
0.0347417
0.0344203
0.0341101
0.0338484
0.0336042
0.0333431
0.0330795
0.0327945
0.0325036
0.0321919
0.0319325
0.0316514
0.0313556
0.031039
0.0306984
0.0303631
0.0300261
0.0296782
0.0293151
0.028908
0.0285136
0.0280905
0.0276396
0.0271945
0.0267086
0.0261683
0.0256364
0.025058
0.0244592
0.0238239
0.0231787
)
;

boundaryField
{
    inlet
    {
        type            fixedValue;
        value           uniform 0.2;
    }
    outlet
    {
        type            zeroGradient;
    }
    yzfaces
    {
        type            empty;
    }
}


// ************************************************************************* //
