/*--------------------------------*- C++ -*----------------------------------*\
| =========                 |                                                 |
| \\      /  F ield         | foam-extend: Open Source CFD                    |
|  \\    /   O peration     | Version:     5.0                                |
|   \\  /    A nd           | Web:         http://www.foam-extend.org         |
|    \\/     M anipulation  |                                                 |
\*---------------------------------------------------------------------------*/
FoamFile
{
    version     2.0;
    format      ascii;
    class       surfaceScalarField;
    location    "5";
    object      phi;
}
// * * * * * * * * * * * * * * * * * * * * * * * * * * * * * * * * * * * * * //

dimensions      [0 3 -1 0 0 0 0];

internalField   nonuniform List<scalar> 
99
(
1.21905e-06
1.22064e-06
1.2242e-06
1.21343e-06
1.21467e-06
1.21191e-06
1.21134e-06
1.20756e-06
1.21065e-06
1.20852e-06
1.20206e-06
1.2018e-06
1.21014e-06
1.21034e-06
1.2106e-06
1.2118e-06
1.20991e-06
1.20955e-06
1.21092e-06
1.2102e-06
1.20956e-06
1.21051e-06
1.21037e-06
1.21173e-06
1.2114e-06
1.21243e-06
1.20942e-06
1.20915e-06
1.20885e-06
1.20691e-06
1.20756e-06
1.20817e-06
1.20596e-06
1.20316e-06
1.20236e-06
1.2005e-06
1.19743e-06
1.19836e-06
1.19961e-06
1.19779e-06
1.19796e-06
1.19891e-06
1.19744e-06
1.19797e-06
1.19722e-06
1.19835e-06
1.1983e-06
1.19965e-06
1.19756e-06
1.19965e-06
1.199e-06
1.19839e-06
1.19855e-06
1.19783e-06
1.19773e-06
1.1993e-06
1.20026e-06
1.20002e-06
1.19993e-06
1.19911e-06
1.1995e-06
1.19959e-06
1.19861e-06
1.20003e-06
1.20005e-06
1.19999e-06
1.1997e-06
1.19791e-06
1.19742e-06
1.19806e-06
1.1983e-06
1.19985e-06
1.20019e-06
1.2001e-06
1.1994e-06
1.19841e-06
1.19791e-06
1.19755e-06
1.19941e-06
1.19915e-06
1.20008e-06
1.19994e-06
1.19976e-06
1.20003e-06
1.20014e-06
1.20122e-06
1.20143e-06
1.20295e-06
1.20344e-06
1.20487e-06
1.20422e-06
1.20521e-06
1.2044e-06
1.20356e-06
1.20274e-06
1.20231e-06
1.20182e-06
1.20227e-06
1.20169e-06
)
;

boundaryField
{
    inlet
    {
        type            calculated;
        value           uniform -1.225e-06;
    }
    outlet
    {
        type            calculated;
        value           uniform 1.20052e-06;
    }
    yzfaces
    {
        type            empty;
    }
}


// ************************************************************************* //
