/*--------------------------------*- C++ -*----------------------------------*\
| =========                 |                                                 |
| \\      /  F ield         | foam-extend: Open Source CFD                    |
|  \\    /   O peration     | Version:     5.0                                |
|   \\  /    A nd           | Web:         http://www.foam-extend.org         |
|    \\/     M anipulation  |                                                 |
\*---------------------------------------------------------------------------*/
FoamFile
{
    version     2.0;
    format      ascii;
    class       volVectorField;
    location    "5";
    object      U.gas;
}
// * * * * * * * * * * * * * * * * * * * * * * * * * * * * * * * * * * * * * //

dimensions      [0 1 -1 0 0 0 0];

internalField   nonuniform List<vector> 
100
(
(0.00761093 0 0)
(0.00870545 0 0)
(0.00953175 0 0)
(0.0101664 0 0)
(0.0106996 0 0)
(0.0112 0 0)
(0.0116424 0 0)
(0.0120282 0 0)
(0.012389 0 0)
(0.0127327 0 0)
(0.0130114 0 0)
(0.0132981 0 0)
(0.0136209 0 0)
(0.0139174 0 0)
(0.0141691 0 0)
(0.0144179 0 0)
(0.0146337 0 0)
(0.0148546 0 0)
(0.0150953 0 0)
(0.0152863 0 0)
(0.0155007 0 0)
(0.0157054 0 0)
(0.015844 0 0)
(0.0159962 0 0)
(0.0161673 0 0)
(0.0163384 0 0)
(0.0164946 0 0)
(0.0166345 0 0)
(0.0167598 0 0)
(0.0168797 0 0)
(0.017001 0 0)
(0.0171176 0 0)
(0.0172333 0 0)
(0.0173393 0 0)
(0.0174678 0 0)
(0.0175684 0 0)
(0.017642 0 0)
(0.0177575 0 0)
(0.0178792 0 0)
(0.0180012 0 0)
(0.0181054 0 0)
(0.018215 0 0)
(0.0182993 0 0)
(0.0183883 0 0)
(0.0184703 0 0)
(0.0185597 0 0)
(0.0186498 0 0)
(0.018736 0 0)
(0.0188036 0 0)
(0.0189034 0 0)
(0.0189809 0 0)
(0.0190473 0 0)
(0.0191412 0 0)
(0.0192191 0 0)
(0.0192934 0 0)
(0.0193794 0 0)
(0.019463 0 0)
(0.0195273 0 0)
(0.019598 0 0)
(0.0196568 0 0)
(0.0197128 0 0)
(0.0197664 0 0)
(0.0198356 0 0)
(0.0198935 0 0)
(0.019953 0 0)
(0.0200119 0 0)
(0.0200518 0 0)
(0.0200849 0 0)
(0.0201183 0 0)
(0.0201717 0 0)
(0.0202475 0 0)
(0.0203129 0 0)
(0.0203682 0 0)
(0.0204088 0 0)
(0.0204449 0 0)
(0.020468 0 0)
(0.0205011 0 0)
(0.0205371 0 0)
(0.0205923 0 0)
(0.0206317 0 0)
(0.0206739 0 0)
(0.020717 0 0)
(0.0207521 0 0)
(0.0207901 0 0)
(0.0208208 0 0)
(0.0208597 0 0)
(0.0209 0 0)
(0.0209415 0 0)
(0.0209941 0 0)
(0.0210309 0 0)
(0.021062 0 0)
(0.0210897 0 0)
(0.0211042 0 0)
(0.0211069 0 0)
(0.0211195 0 0)
(0.0211174 0 0)
(0.0211251 0 0)
(0.0211382 0 0)
(0.0211486 0 0)
(0.0211412 0 0)
)
;

boundaryField
{
    inlet
    {
        type            fixedValue;
        value           uniform (0.005 0 0);
    }
    outlet
    {
        type            zeroGradient;
    }
    yzfaces
    {
        type            empty;
    }
}


// ************************************************************************* //
