/*--------------------------------*- C++ -*----------------------------------*\
| =========                 |                                                 |
| \\      /  F ield         | foam-extend: Open Source CFD                    |
|  \\    /   O peration     | Version:     5.0                                |
|   \\  /    A nd           | Web:         http://www.foam-extend.org         |
|    \\/     M anipulation  |                                                 |
\*---------------------------------------------------------------------------*/
FoamFile
{
    version     2.0;
    format      ascii;
    class       volVectorField;
    location    "10";
    object      U.water;
}
// * * * * * * * * * * * * * * * * * * * * * * * * * * * * * * * * * * * * * //

dimensions      [0 1 -1 0 0 0 0];

internalField   nonuniform List<vector> 
100
(
(0.00500158 0 0)
(0.00500077 0 0)
(0.00500304 0 0)
(0.00500924 0 0)
(0.00500976 0 0)
(0.005006 0 0)
(0.00500797 0 0)
(0.00501232 0 0)
(0.00500956 0 0)
(0.0050111 0 0)
(0.00501214 0 0)
(0.00501031 0 0)
(0.00501327 0 0)
(0.00501004 0 0)
(0.00501015 0 0)
(0.00501503 0 0)
(0.00501658 0 0)
(0.00501909 0 0)
(0.0050173 0 0)
(0.00501984 0 0)
(0.00502239 0 0)
(0.0050168 0 0)
(0.00501891 0 0)
(0.00501771 0 0)
(0.00501553 0 0)
(0.00501817 0 0)
(0.00501846 0 0)
(0.00501636 0 0)
(0.00502008 0 0)
(0.00502293 0 0)
(0.00502101 0 0)
(0.00501923 0 0)
(0.00501657 0 0)
(0.00502025 0 0)
(0.00502271 0 0)
(0.00502349 0 0)
(0.00502319 0 0)
(0.00502101 0 0)
(0.00502302 0 0)
(0.00502296 0 0)
(0.00502166 0 0)
(0.00502503 0 0)
(0.00502681 0 0)
(0.00502298 0 0)
(0.00501342 0 0)
(0.00499596 0 0)
(0.00492971 0 0)
(0.00486411 0 0)
(0.00484642 0 0)
(0.00481095 0 0)
(0.00474769 0 0)
(0.00473516 0 0)
(0.00469726 0 0)
(0.00466994 0 0)
(0.00456644 0 0)
(0.00437421 0 0)
(0.00438079 0 0)
(0.00448736 0 0)
(0.00513898 0 0)
(0.00482682 0 0)
(0.00278532 0 0)
(0.000224792 0 0)
(1.85761e-05 0 0)
(1.53519e-06 0 0)
(1.27595e-07 0 0)
(1.07943e-08 0 0)
(9.24746e-10 0 0)
(7.83283e-11 0 0)
(6.75299e-12 0 0)
(5.79997e-13 0 0)
(5.00312e-14 0 0)
(4.31489e-15 0 0)
(3.74312e-16 0 0)
(3.22463e-17 0 0)
(2.80124e-18 0 0)
(2.44869e-19 0 0)
(2.12396e-20 0 0)
(1.85242e-21 0 0)
(1.61207e-22 0 0)
(1.40496e-23 0 0)
(1.21018e-24 0 0)
(1.05812e-25 0 0)
(9.11662e-27 0 0)
(7.91398e-28 0 0)
(6.95301e-29 0 0)
(6.01155e-30 0 0)
(5.23401e-31 0 0)
(4.60017e-32 0 0)
(3.99147e-33 0 0)
(3.48987e-34 0 0)
(3.03912e-35 0 0)
(2.65909e-36 0 0)
(2.31992e-37 0 0)
(2.02922e-38 0 0)
(1.77709e-39 0 0)
(1.55528e-40 0 0)
(1.34846e-41 0 0)
(1.1857e-42 0 0)
(1.04019e-43 0 0)
(8.33856e-45 0 0)
)
;

boundaryField
{
    inlet
    {
        type            fixedValue;
        value           uniform (0.005 0 0);
    }
    outlet
    {
        type            zeroGradient;
    }
    yzfaces
    {
        type            empty;
    }
}


// ************************************************************************* //
