/*--------------------------------*- C++ -*----------------------------------*\
| =========                 |                                                 |
| \\      /  F ield         | foam-extend: Open Source CFD                    |
|  \\    /   O peration     | Version:     5.0                                |
|   \\  /    A nd           | Web:         http://www.foam-extend.org         |
|    \\/     M anipulation  |                                                 |
\*---------------------------------------------------------------------------*/
FoamFile
{
    version     2.0;
    format      ascii;
    class       volScalarField;
    location    "10";
    object      XH2O;
}
// * * * * * * * * * * * * * * * * * * * * * * * * * * * * * * * * * * * * * //

dimensions      [0 0 0 0 0 0 0];

internalField   nonuniform List<scalar> 
100
(
-8.22077e+19
2.21605e+20
-4.48842e+20
9.43034e+20
-1.92698e+21
3.88737e+21
-7.7284e+21
1.51756e+22
-2.95258e+22
5.72436e+22
-1.11238e+23
2.18524e+23
-4.37685e+23
8.99354e+23
-1.90308e+24
4.12862e+24
-9.09635e+24
2.00914e+25
-4.38476e+25
9.31204e+25
-1.88745e+26
3.55608e+26
-5.92037e+26
7.52633e+26
-1.92466e+26
-3.18905e+27
1.5298e+28
-5.11369e+28
1.45717e+29
-3.73403e+29
8.77422e+29
-1.89209e+30
3.68768e+30
-6.21297e+30
7.78762e+30
-1.2301e+30
-3.64647e+31
1.69781e+32
-5.64713e+32
1.6219e+33
-4.25948e+33
1.04633e+34
-2.42501e+34
5.30996e+34
-1.09479e+35
2.10633e+35
-3.69991e+35
5.61243e+35
-5.87898e+35
-7.17046e+34
1.07227e+36
9.20364e+36
-8.93729e+37
3.15477e+38
1.93324e+38
-7.37549e+39
1.30372e+40
3.81522e+41
1.23175e+42
2.14089e+42
2.15163e+42
2.51059e+41
1.92002e+39
1.13272e+36
5.34742e+31
2.0796e+26
6.91743e+19
1.91989e+12
4571.86
9.30052e-07
1.63171e-17
2.45359e-29
3.22435e-42
3.64468e-56
3.55397e-71
3.0325e-87
2.23201e-104
1.43608e-122
8.02749e-142
3.9601e-162
1.66775e-183
6.19338e-206
1.9806e-229
5.42844e-254
1.32009e-279
2.7754e-306
0
0
0
0
0
0
0
0
0
0
0
0
0
0
)
;

boundaryField
{
    inlet
    {
        type            fixedValue;
        value           uniform 0.5;
    }
    outlet
    {
        type            zeroGradient;
    }
    yzfaces
    {
        type            empty;
    }
}


// ************************************************************************* //
