/*--------------------------------*- C++ -*----------------------------------*\
| =========                 |                                                 |
| \\      /  F ield         | foam-extend: Open Source CFD                    |
|  \\    /   O peration     | Version:     5.0                                |
|   \\  /    A nd           | Web:         http://www.foam-extend.org         |
|    \\/     M anipulation  |                                                 |
\*---------------------------------------------------------------------------*/
FoamFile
{
    version     2.0;
    format      ascii;
    class       volScalarField;
    location    "4";
    object      XH2O;
}
// * * * * * * * * * * * * * * * * * * * * * * * * * * * * * * * * * * * * * //

dimensions      [0 0 0 0 0 0 0];

internalField   nonuniform List<scalar> 
100
(
1.00661
0.990125
1.00905
0.989832
1.01106
0.988538
1.00758
0.997078
1.00085
1.00926
0.983445
1.00647
0.98951
1.01334
1.02448
1.00903
0.999982
0.935911
0.824495
0.697329
0.551864
0.380002
0.30049
0.0797755
0.0854265
-0.0135534
0.00525211
0.0268791
-0.0343756
0.0998908
-0.0150549
-0.0765286
-0.0885456
0.00354541
0.0401782
-0.0160739
-0.118107
0.0229539
-0.0404425
-0.0114058
-0.00685828
0.0636519
-0.0999297
0.0726838
0.0359828
-0.112406
0.0281437
-0.0418235
0.0112018
0.0412643
-0.00809535
-0.0452566
0.0279758
-0.035005
-0.0275963
0.0340444
0.00573123
-0.0217806
0.0807463
-0.0440293
0.110025
-0.0485569
-0.0223345
0.0968696
-0.0522341
0.042617
0.0119567
0.00415515
-0.0621026
0.0102633
-0.0278241
0.0584779
-0.0200877
0.0174015
0.0157195
-0.0188055
0.005092
-0.0260311
0.0131978
-0.0492854
-0.0302099
-0.033195
0.0752224
0.0345787
-0.00299827
0.0900303
-0.0195167
0.116963
-0.166603
0.0686577
-0.11812
0.0128505
0.117227
-0.0332106
-0.0235832
0.0275194
-0.102518
0.122538
-0.171312
0.323666
)
;

boundaryField
{
    inlet
    {
        type            calculated;
        value           uniform 1;
    }
    outlet
    {
        type            calculated;
        value           uniform 0.323666;
    }
    yzfaces
    {
        type            empty;
    }
}


// ************************************************************************* //
