/*--------------------------------*- C++ -*----------------------------------*\
| =========                 |                                                 |
| \\      /  F ield         | foam-extend: Open Source CFD                    |
|  \\    /   O peration     | Version:     5.0                                |
|   \\  /    A nd           | Web:         http://www.foam-extend.org         |
|    \\/     M anipulation  |                                                 |
\*---------------------------------------------------------------------------*/
FoamFile
{
    version     2.0;
    format      ascii;
    class       surfaceScalarField;
    location    "3";
    object      phi;
}
// * * * * * * * * * * * * * * * * * * * * * * * * * * * * * * * * * * * * * //

dimensions      [0 3 -1 0 0 0 0];

internalField   nonuniform List<scalar> 
99
(
1.22437e-06
1.22678e-06
1.22501e-06
1.2257e-06
1.22427e-06
1.22515e-06
1.22595e-06
1.22556e-06
1.22415e-06
1.22487e-06
1.22276e-06
1.22414e-06
1.2237e-06
1.22482e-06
1.22075e-06
1.22774e-06
1.21377e-06
1.22756e-06
1.25752e-06
1.23781e-06
1.22916e-06
1.26969e-06
1.26868e-06
1.26676e-06
1.25562e-06
1.26872e-06
1.22968e-06
1.25966e-06
1.27447e-06
1.2524e-06
1.26682e-06
1.26684e-06
1.25163e-06
1.28185e-06
1.25892e-06
1.27409e-06
1.28945e-06
1.25882e-06
1.27307e-06
1.28867e-06
1.2739e-06
1.28839e-06
1.289e-06
1.28915e-06
1.30443e-06
1.27428e-06
1.26612e-06
1.25139e-06
1.24498e-06
1.22936e-06
1.237e-06
1.22184e-06
1.22175e-06
1.25154e-06
1.23665e-06
1.25191e-06
1.24409e-06
1.27377e-06
1.25171e-06
1.25193e-06
1.25235e-06
1.25202e-06
1.24384e-06
1.25938e-06
1.26659e-06
1.2669e-06
1.23684e-06
1.22981e-06
1.237e-06
1.21423e-06
1.2218e-06
1.21451e-06
1.21455e-06
1.21504e-06
1.20692e-06
1.20674e-06
1.22251e-06
1.19173e-06
1.20748e-06
1.18451e-06
1.18489e-06
1.19916e-06
1.19956e-06
1.17734e-06
1.1846e-06
1.16969e-06
1.18498e-06
1.17722e-06
1.17077e-06
1.16232e-06
1.17673e-06
1.17664e-06
1.18467e-06
1.19977e-06
1.18383e-06
1.1918e-06
1.20657e-06
1.199e-06
1.18934e-06
)
;

boundaryField
{
    inlet
    {
        type            calculated;
        value           uniform -1.225e-06;
    }
    outlet
    {
        type            calculated;
        value           uniform 1.2215e-06;
    }
    yzfaces
    {
        type            empty;
    }
}


// ************************************************************************* //
