/*--------------------------------*- C++ -*----------------------------------*\
| =========                 |                                                 |
| \\      /  F ield         | foam-extend: Open Source CFD                    |
|  \\    /   O peration     | Version:     5.0                                |
|   \\  /    A nd           | Web:         http://www.foam-extend.org         |
|    \\/     M anipulation  |                                                 |
\*---------------------------------------------------------------------------*/
FoamFile
{
    version     2.0;
    format      ascii;
    class       volScalarField;
    location    "4000";
    object      alpha.gas;
}
// * * * * * * * * * * * * * * * * * * * * * * * * * * * * * * * * * * * * * //

dimensions      [0 0 0 0 0 0 0];

internalField   nonuniform List<scalar> 
1000
(
0
0
0
0
0
0
0
0
0
0
0
0
0
0
0
0
0
0
0
0
0
0
0
0
0
0
0
0
0
0
0
0
0
0
0
0
0
0
0
6.8136e-315
9.39499e-155
4.11469e-81
5.14182e-41
1.40075e-23
1.13095e-16
2.34718e-11
1.74005e-08
5.38773e-07
3.1852e-06
8.76097e-06
1.87236e-05
3.15183e-05
4.71074e-05
5.89659e-05
7.72587e-05
9.6753e-05
0.000114825
0.000256512
0.00212051
0.00650403
0.010035
0.0132963
0.0191978
0.0159469
0.0154685
0.0201626
0.0160695
0.0190902
0.0166533
0.0169551
0.0163039
0.0205099
0.0159073
0.0192433
0.0195999
0.0199675
0.0192769
0.0196507
0.0174649
0.0206372
0.0171464
0.0177914
0.0187286
0.016504
0.0181935
0.0233129
0.0184906
0.0275223
0.026203
0.0285841
0.0203365
0.0267356
0.0323022
0.0277198
0.0274028
0.0337877
0.037445
0.0416586
0.030438
0.0367841
0
0
0
0
0
0
0
0
0
0
0
0
0
0
0
0
0
0
0
0
0
0
0
0
0
0
0
0
0
0
0
0
0
0
0
0
0
0
2.01642e-218
1.9091e-101
2.0875e-51
2.00181e-28
2.68076e-16
7.85755e-11
1.03447e-07
5.36013e-05
0.00107159
0.00475729
0.00935689
0.0158891
0.0196873
0.0233321
0.016542
0.0270392
0.0253149
0.0269814
0.0239334
0.021971
0.0297944
0.0302542
0.0256803
0.0209274
0.0225889
0.0255907
0.0286196
0.0206672
0.0320365
0.022513
0.0241698
0.0244166
0.0290135
0.0307572
0.0354776
0.0298235
0.025568
0.0227459
0.022915
0.0307218
0.0260477
0.0343383
0.0200349
0.0229324
0.0319494
0.0223609
0.0230083
0.0354159
0.0289685
0.0281629
0.0256767
0.036142
0.0388892
0.0418005
0.0305726
0.0277035
0.0340824
0.0389884
0.0342847
0.0333397
0.0323268
0.040152
0
0
0
0
0
0
0
0
0
0
0
0
0
0
0
0
0
0
0
0
0
0
0
0
0
0
0
0
0
0
0
0
3.67153e-193
1.4026e-205
2.37324e-217
3.08076e-221
1.86925e-213
0
6.33792e-69
8.47043e-35
1.20132e-19
2.58322e-12
1.46651e-07
0.000117936
0.00284253
0.00924135
0.0164253
0.0245095
0.0280628
0.0256485
0.0249863
0.0239779
0.028849
0.032222
0.0355886
0.0342777
0.0250851
0.0236612
0.0237933
0.0318944
0.0256602
0.0242105
0.0292391
0.0277814
0.0361578
0.0379992
0.0298857
0.0317016
0.0301748
0.0370489
0.0405868
0.0322561
0.0272679
0.0410547
0.0360325
0.0395734
0.0379299
0.0258892
0.0345132
0.0376883
0.0379338
0.0339749
0.0257533
0.0354427
0.0321746
0.0299133
0.0354258
0.0395803
0.0355056
0.0414636
0.0265699
0.0306197
0.0348717
0.0337466
0.0325531
0.0352076
0.0460789
0.0331578
0.0425439
0.0486333
0
0
0
0
0
0
0
0
0
0
0
0
0
0
0
0
0
0
0
0
0
0
0
0
0
0
0
1.85178e-181
0
0
1.16725e-173
5.82991e-69
2.54297e-67
1.03496e-71
1.31253e-75
6.81692e-77
2.8473e-74
0
3.45455e-24
2.57764e-14
4.88922e-09
1.29245e-05
0.00099828
0.00799763
0.0136683
0.0261464
0.0236144
0.0298247
0.0314381
0.0389705
0.0249638
0.0369901
0.0339817
0.0393367
0.0395364
0.0293264
0.0380568
0.0260111
0.0312867
0.0296146
0.0296843
0.0367596
0.0263197
0.0281427
0.0334961
0.0282661
0.0407147
0.0319186
0.0390781
0.037356
0.0267179
0.0285376
0.0321426
0.0268109
0.041146
0.0322127
0.0429636
0.0304247
0.0322081
0.033893
0.026756
0.0311751
0.0317719
0.0313079
0.0307809
0.0378868
0.0356932
0.0398325
0.0390868
0.0364831
0.0283671
0.027013
0.0438781
0.0412614
0.034616
0.0432561
0.0303893
0.0373157
0.0363262
0.0486214
0
0
0
0
0
0
0
0
0
0
0
0
0
0
0
0
0
0
0
0
0
0
0
0
0
0
0
0
0
0
0
3.35151e-26
1.31651e-25
4.56299e-27
2.51731e-28
6.62758e-29
5.06354e-28
0
4.86117e-11
2.02979e-06
0.000332908
0.00494778
0.0168535
0.0219528
0.0247452
0.0284914
0.0301743
0.0362475
0.0288286
0.0258288
0.0365273
0.0298685
0.0388808
0.0284265
0.0320715
0.0375052
0.02863
0.0286672
0.0394606
0.02693
0.0341401
0.0287708
0.0359892
0.0324091
0.0288234
0.0360474
0.0396669
0.0432852
0.0270593
0.0342869
0.0415167
0.0379158
0.0397327
0.0361315
0.0307216
0.0379619
0.0271233
0.041599
0.0271314
0.0284794
0.0335961
0.0322191
0.0343187
0.0247699
0.0237332
0.0289912
0.024634
0.0366774
0.0272499
0.0276651
0.0386132
0.0430231
0.0422408
0.0357713
0.0404039
0.0355347
0.0444943
0.0438861
0.0368694
0.033766
0
0
0
0
0
0
0
0
0
0
0
0
0
0
0
0
0
0
0
0
0
0
6.49264e-297
7.37474e-152
4.28224e-77
0
3.90882e-20
1.88311e-15
2.72849e-14
3.71926e-13
1.10209e-12
7.25572e-12
9.82046e-12
2.58485e-12
1.02358e-12
6.49071e-13
1.17349e-12
6.03995e-13
8.81118e-13
2.68825e-12
6.20168e-08
3.75567e-05
0.00108654
0.00732662
0.0184511
0.0186935
0.0295193
0.0226712
0.0285212
0.0346669
0.0392384
0.04192
0.0319314
0.0303774
0.0359099
0.0270414
0.0361315
0.0362036
0.0326255
0.030837
0.0326674
0.0399403
0.0363155
0.0381332
0.0417631
0.0399418
0.0435663
0.0435582
0.0326637
0.0326634
0.0435528
0.032667
0.0381191
0.027236
0.0345106
0.0327088
0.0290886
0.0400161
0.0309392
0.0418033
0.0257237
0.0366885
0.0353014
0.0349454
0.0313976
0.028933
0.0344027
0.035132
0.0375625
0.0331292
0.0319718
0.034367
0.0332079
0.0395016
0.0443016
0.047551
0.0388983
0.0400695
0.0327413
0.0338325
0
0
0
0
0
0
0
0
0
0
0
0
0
0
0
0
0
0
0
0
0
3.36195e-201
1.02152e-92
1.72485e-49
2.12868e-25
4.44205e-14
4.95996e-10
7.00723e-08
3.08014e-07
8.32507e-07
1.71377e-06
5.27426e-06
6.4427e-06
4.00831e-06
3.06352e-06
2.22787e-06
3.20187e-06
2.34143e-06
2.60429e-06
3.3374e-06
1.82673e-06
1.09545e-06
3.03795e-06
0.000232942
0.00395202
0.0106129
0.020891
0.0210692
0.0278766
0.0301882
0.0283387
0.0308304
0.0419253
0.0337987
0.0269106
0.0396476
0.0380337
0.0308805
0.0363841
0.0400696
0.0437452
0.0401149
0.0401174
0.0273502
0.0419325
0.0309861
0.0437366
0.0346137
0.0382473
0.0400562
0.0382216
0.0382067
0.0327339
0.0345365
0.0272499
0.0417598
0.027209
0.0398757
0.0398299
0.0306908
0.0360012
0.0252682
0.0217103
0.0339009
0.0350859
0.0377328
0.0387817
0.0364364
0.0389026
0.0397516
0.028259
0.0322784
0.0419808
0.041131
0.0421553
0.0393622
0.038399
0.0394716
0.0407246
0.0444966
0
0
0
0
0
0
0
0
0
0
0
0
0
0
0
0
0
0
0
0
0
4.07237e-61
5.91234e-31
1.77404e-18
5.93065e-11
4.54677e-07
3.28413e-05
0.000262912
0.000655508
0.00117364
0.0016902
0.00203499
0.00197921
0.00196695
0.00221801
0.0022291
0.00177964
0.00193593
0.00203778
0.00172038
0.00158173
0.00183048
0.00278579
0.00663032
0.0184923
0.0217889
0.0309127
0.0271789
0.0367775
0.0302878
0.0397541
0.0300999
0.0340461
0.0379908
0.0346158
0.0420767
0.0385482
0.0312583
0.0275981
0.0349644
0.0441688
0.031283
0.0367915
0.0312605
0.0312475
0.0293969
0.0422405
0.0330422
0.042203
0.044018
0.0403316
0.027487
0.0274774
0.0384552
0.0311172
0.0311053
0.0420673
0.040219
0.042025
0.0269125
0.0370449
0.0236041
0.0359946
0.0295663
0.0255575
0.0374684
0.0300703
0.0306306
0.029448
0.0281837
0.0268449
0.039964
0.0427379
0.0304944
0.0446809
0.0380017
0.0349286
0.0316678
0.0325435
0.038091
0
0
0
0
0
0
0
0
0
0
0
0
0
0
0
0
0
0
0
0
0
7.81534e-21
7.61543e-13
2.35e-08
2.50326e-05
0.0010429
0.00528424
0.00923258
0.0149046
0.015228
0.0209486
0.0202325
0.0183308
0.026977
0.0201592
0.0252559
0.0310585
0.0309192
0.0334884
0.0217617
0.0312119
0.0245095
0.0265757
0.0239328
0.0327138
0.0391117
0.0266015
0.0291944
0.0447875
0.0344632
0.0291213
0.0332704
0.045292
0.035669
0.0357423
0.0337772
0.0417021
0.0396831
0.0396194
0.0355856
0.0453647
0.0452561
0.0451408
0.0391502
0.0312377
0.0408919
0.0310745
0.0445539
0.0405756
0.0462547
0.0307598
0.0441069
0.0420868
0.0381688
0.0380775
0.0284902
0.0341057
0.0359133
0.0395937
0.0300397
0.0357972
0.0344992
0.0363461
0.0297019
0.0368559
0.032897
0.0335269
0.0358129
0.0260302
0.042127
0.0268711
0.0380707
0.0332452
0.043174
0.0441699
0.043323
0.0465034
0.0354836
0.0449899
0.0424009
0
0
0
0
0
0
0
0
0
0
0
0
0
0
0
0
0
0
0
0
2.92591e-17
1.84722e-09
1.02374e-05
0.000701999
0.00726717
0.0201645
0.0298095
0.0396173
0.0484139
0.0400167
0.052195
0.0499202
0.0571986
0.0421479
0.0681465
0.066501
0.0581733
0.0465281
0.0580515
0.0667636
0.0667926
0.0552051
0.0667411
0.0551399
0.0697491
0.0439498
0.0679583
0.050963
0.0454432
0.070222
0.0555502
0.0743805
0.0622995
0.0591996
0.0714903
0.0712647
0.0462484
0.0612474
0.0577879
0.0483078
0.0719101
0.0446028
0.0590034
0.0439056
0.0580739
0.0547317
0.0428628
0.0481802
0.0449733
0.0501727
0.0414602
0.046584
0.0407478
0.0484627
0.0453608
0.0528739
0.0628516
0.0466774
0.0461664
0.050631
0.0563999
0.0367395
0.0485791
0.0431153
0.0399205
0.0405081
0.0452445
0.0391718
0.0503157
0.050747
0.0400491
0.0334689
0.044634
0.0493332
0.0384073
0.0497912
0.0524856
0.0346334
0.0369203
0.0416734
)
;

boundaryField
{
    inlet
    {
        type            fixedValue;
        value           uniform 0.1;
    }
    outlet
    {
        type            zeroGradient;
    }
    walls
    {
        type            zeroGradient;
    }
}


// ************************************************************************* //
