/*--------------------------------*- C++ -*----------------------------------*\
| =========                 |                                                 |
| \\      /  F ield         | foam-extend: Open Source CFD                    |
|  \\    /   O peration     | Version:     5.0                                |
|   \\  /    A nd           | Web:         http://www.foam-extend.org         |
|    \\/     M anipulation  |                                                 |
\*---------------------------------------------------------------------------*/
FoamFile
{
    version     2.0;
    format      ascii;
    class       volScalarField;
    location    "4000";
    object      alpha.water;
}
// * * * * * * * * * * * * * * * * * * * * * * * * * * * * * * * * * * * * * //

dimensions      [0 0 0 0 0 0 0];

internalField   nonuniform List<scalar> 
1000
(
0
0
0
0
0
0
0
0
0
0
0
0
0
0
0
0
0
0
0
0
0
0
0
0
0
0
0
0
0
0
0
0
0
0
0
0
0
0
0
0
0
0
0
0
0
0
0
0
0
0
0
0
0
0
0
0
0
0
0
0
0
0
0
0
0
0
0
0
0
0
0
0
0
0
0
2.97013e-18
1.4161e-09
2.95994e-05
0.00327851
0.0323447
0.0632883
0.0792959
0.0875974
0.0781446
0.0857452
0.108954
0.0856305
0.125495
0.117785
0.126283
0.0881892
0.113325
0.133737
0.111947
0.107649
0.128859
0.138421
0.148883
0.104881
0.121672
0
0
0
0
0
0
0
0
0
0
0
0
0
0
0
0
0
0
0
0
0
0
0
0
0
0
0
0
0
0
0
0
0
0
0
0
0
0
0
0
0
0
0
0
0
0
0
0
0
0
0
0
0
0
0
0
0
0
0
0
0
0
0
0
0
0
0
0
0
0
0
0
0
0
0
0
3.76088e-13
5.47625e-07
0.000505957
0.0167228
0.042378
0.0642222
0.0979515
0.0719715
0.0748782
0.115849
0.095502
0.0929785
0.084637
0.118638
0.127329
0.136493
0.0995683
0.0897788
0.10985
0.125092
0.109577
0.106137
0.102498
0.127037
0
0
0
0
0
0
0
0
0
0
0
0
0
0
0
0
0
0
0
0
0
0
0
0
0
0
0
0
0
0
0
0
0
0
0
0
0
0
0
0
0
0
0
0
0
0
0
0
0
0
0
0
0
0
0
0
0
0
0
0
0
0
0
0
0
0
0
0
0
0
0
0
0
0
0
0
0
3.52856e-12
1.6342e-06
0.00106175
0.0215219
0.0628008
0.0662697
0.0978731
0.0931119
0.0884513
0.106099
0.119854
0.108538
0.127542
0.0822293
0.0950017
0.108495
0.105354
0.101901
0.110424
0.144788
0.104392
0.13413
0.153548
0
0
0
0
0
0
0
0
0
0
0
0
0
0
0
0
0
0
0
0
0
0
0
0
0
0
0
0
0
0
0
0
0
0
0
0
0
0
0
0
0
0
0
0
0
0
0
0
0
0
0
0
0
0
0
0
0
0
0
0
0
0
0
0
0
0
0
0
0
0
0
0
0
0
0
0
0
3.50403e-13
4.70901e-07
0.000517105
0.0109997
0.0456608
0.0742579
0.0837206
0.0863682
0.108932
0.104729
0.118421
0.117572
0.110736
0.0867452
0.0830575
0.135519
0.128187
0.108052
0.135515
0.0955603
0.117653
0.114761
0.153725
0
0
0
0
0
0
0
0
0
0
0
0
0
0
0
0
0
0
0
0
0
0
0
0
0
0
0
0
0
0
0
0
0
0
0
0
0
0
0
0
0
0
0
0
0
0
0
0
0
0
0
0
0
0
0
0
0
0
0
0
0
0
0
0
0
0
0
0
0
0
0
0
0
0
0
0
1.11678e-18
1.0959e-09
2.11034e-05
0.00265183
0.0278816
0.0646049
0.0876911
0.0686838
0.0676394
0.0840221
0.072449
0.108928
0.0818518
0.08368
0.117458
0.131756
0.130224
0.110931
0.125886
0.111215
0.139716
0.138184
0.116343
0.106684
0
0
0
0
0
0
0
0
0
0
0
0
0
0
0
0
0
0
0
0
0
0
0
0
0
0
0
0
0
0
0
0
0
0
0
0
0
0
0
0
0
0
0
0
0
0
0
0
0
0
0
0
0
0
0
0
0
0
0
0
0
0
0
0
0
0
0
0
0
0
0
0
0
0
0
0
0
6.12353e-14
1.86498e-07
0.000397626
0.00921886
0.0483794
0.0806046
0.0924584
0.0877044
0.0829183
0.100183
0.10374
0.112141
0.09985
0.0970473
0.104921
0.101956
0.121878
0.13734
0.148085
0.121642
0.125716
0.103042
0.106761
0
0
0
0
0
0
0
0
0
0
0
0
0
0
0
0
0
0
0
0
0
0
0
0
0
0
0
0
0
0
0
0
0
0
0
0
0
0
0
0
0
0
0
0
0
0
0
0
0
0
0
0
0
0
0
0
0
0
0
0
0
0
0
0
0
0
0
0
0
0
0
0
0
0
0
0
0
2.61233e-14
1.58537e-07
0.000275299
0.0110559
0.0380515
0.0496859
0.0866437
0.0967002
0.107738
0.113284
0.108096
0.116674
0.120351
0.0862606
0.099052
0.129527
0.127643
0.131435
0.123273
0.120645
0.124311
0.128481
0.14057
0
0
0
0
0
0
0
0
0
0
0
0
0
0
0
0
0
0
0
0
0
0
0
0
0
0
0
0
0
0
0
0
0
0
0
0
0
0
0
0
0
0
0
0
0
0
0
0
0
0
0
0
0
0
0
0
0
0
0
0
0
0
0
0
0
0
0
0
0
0
0
0
0
0
0
0
4.56736e-19
6.72224e-10
2.53792e-05
0.0027351
0.0312949
0.0494013
0.0891137
0.0803859
0.0718779
0.107378
0.0877739
0.0904323
0.0877659
0.0846461
0.0811713
0.121478
0.130812
0.0939551
0.138349
0.118327
0.109256
0.0994377
0.102475
0.120259
0
0
0
0
0
0
0
0
0
0
0
0
0
0
0
0
0
0
0
0
0
0
0
0
0
0
0
0
0
0
0
0
0
0
0
0
0
0
0
0
0
0
0
0
0
0
0
0
0
0
0
0
0
0
0
0
0
0
0
0
0
0
0
0
0
0
0
0
0
0
0
0
0
0
0
0
0
1.48717e-14
1.13759e-07
0.000217623
0.00935264
0.0449668
0.0794663
0.0759744
0.0986941
0.0910291
0.0946274
0.102688
0.0756799
0.1237
0.0798652
0.114053
0.100495
0.131526
0.135664
0.134037
0.144845
0.111173
0.141492
0.133782
0
0
0
0
0
0
0
0
0
0
0
0
0
0
0
0
0
0
0
0
0
0
0
0
0
0
0
0
0
0
0
0
0
0
0
0
0
0
0
0
0
0
0
0
0
0
0
0
0
0
0
0
0
0
0
0
0
0
0
0
0
0
0
0
0
0
0
0
0
0
0
0
0
0
0
0
0
7.31228e-19
6.89691e-10
2.18736e-05
0.00370004
0.0244447
0.0641968
0.0741684
0.0742642
0.0786087
0.0907609
0.0810568
0.106959
0.111102
0.0902135
0.0774367
0.105977
0.120518
0.0966978
0.129217
0.14085
0.0963699
0.106746
0.125663
)
;

boundaryField
{
    inlet
    {
        type            fixedValue;
        value           uniform 0.1;
    }
    outlet
    {
        type            zeroGradient;
    }
    walls
    {
        type            zeroGradient;
    }
}


// ************************************************************************* //
