/*--------------------------------*- C++ -*----------------------------------*\
| =========                 |                                                 |
| \\      /  F ield         | foam-extend: Open Source CFD                    |
|  \\    /   O peration     | Version:     5.0                                |
|   \\  /    A nd           | Web:         http://www.foam-extend.org         |
|    \\/     M anipulation  |                                                 |
\*---------------------------------------------------------------------------*/
FoamFile
{
    version     2.0;
    format      ascii;
    class       volScalarField;
    location    "4000";
    object      alpha.oil;
}
// * * * * * * * * * * * * * * * * * * * * * * * * * * * * * * * * * * * * * //

dimensions      [0 0 0 0 0 0 0];

internalField   nonuniform List<scalar> 
1000
(
0.22
0.22
0.17
0.19
0.17
0.16
0.15
0.2
0.15
0.16
0.24
0.22
0.24
0.24
0.23
0.15
0.17
0.24
0.2
0.23
0.24
0.19
0.18
0.21
0.18
0.17
0.19
0.22
0.22
0.15
0.15
0.22
0.19
0.19
0.17
0.22
0.24
0.23
0.16
0.2
0.24
0.2
0.24
0.17
0.23
0.22
0.15
0.199999
0.219997
0.169991
0.209981
0.199968
0.219953
0.199941
0.169923
0.209903
0.149885
0.199743
0.167879
0.153496
0.149965
0.166704
0.220802
0.174053
0.164532
0.209837
0.163931
0.19091
0.163347
0.163045
0.153696
0.18949
0.144093
0.170757
0.1704
0.170033
0.160723
0.16032
0.139257
0.157018
0.109565
0.0929127
0.083674
0.0653514
0.0660613
0.0777328
0.0558789
0.0769823
0.0660122
0.0651326
0.0414744
0.0499395
0.0539607
0.0403334
0.0349486
0.0373528
0.0341338
0.0294587
0.0146806
0.0115436
0.16
0.22
0.18
0.19
0.24
0.24
0.16
0.24
0.2
0.19
0.17
0.19
0.21
0.17
0.17
0.23
0.15
0.2
0.19
0.22
0.18
0.21
0.17
0.19
0.19
0.2
0.21
0.18
0.21
0.15
0.23
0.16
0.18
0.18
0.19
0.24
0.19
0.24
0.22
0.19
0.24
0.2
0.22
0.22
0.17
0.199946
0.158928
0.145243
0.140643
0.174111
0.180313
0.196668
0.133458
0.212961
0.194685
0.203019
0.176067
0.158029
0.210206
0.209746
0.17432
0.139073
0.147411
0.164409
0.18138
0.129333
0.197963
0.137487
0.14583
0.145583
0.170986
0.179243
0.204522
0.170177
0.144432
0.127254
0.127085
0.169278
0.143446
0.188939
0.0975871
0.0928454
0.110099
0.0656676
0.0621135
0.0887355
0.0655295
0.0588586
0.0496863
0.0652202
0.0637819
0.0617068
0.0398592
0.0325176
0.0360674
0.0359198
0.0261385
0.0205234
0.0151749
0.0128106
0.21
0.21
0.15
0.17
0.24
0.21
0.21
0.2
0.2
0.17
0.22
0.24
0.17
0.19
0.16
0.18
0.19
0.18
0.19
0.21
0.18
0.2
0.21
0.21
0.24
0.23
0.17
0.19
0.15
0.17
0.24
0.21
0.21
0.21
0.23
0.16
0.18
0.21
0.24
0.18
0.15
0.22
0.15
0.239882
0.217157
0.160759
0.163575
0.18549
0.181937
0.154352
0.145014
0.136022
0.161151
0.177778
0.194411
0.185722
0.134915
0.126339
0.126207
0.168106
0.13434
0.125789
0.150761
0.142219
0.183842
0.192001
0.150114
0.158298
0.149825
0.182951
0.199413
0.157744
0.132732
0.198945
0.173967
0.190427
0.18207
0.124111
0.165485
0.18125
0.180544
0.143224
0.087977
0.106684
0.0847135
0.0716353
0.0784751
0.0805653
0.0659563
0.0709948
0.0412009
0.0443787
0.0466331
0.0408994
0.0355461
0.0343679
0.0391331
0.02245
0.0233257
0.0178189
0.18
0.18
0.24
0.22
0.18
0.18
0.19
0.22
0.22
0.19
0.16
0.18
0.21
0.21
0.19
0.16
0.2
0.17
0.17
0.16
0.23
0.17
0.21
0.24
0.18
0.21
0.17
0.15
0.22
0.22
0.17
0.15
0.22
0.15
0.17
0.18
0.2
0.16
0.15
0.23
0.21
0.159987
0.219002
0.222002
0.146332
0.203854
0.146386
0.170175
0.168562
0.201029
0.125036
0.18301
0.166018
0.190663
0.190464
0.140674
0.181943
0.123989
0.148713
0.140385
0.140316
0.17324
0.12368
0.131857
0.156504
0.131734
0.189285
0.148081
0.180922
0.172644
0.123282
0.131462
0.147857
0.123189
0.188854
0.147787
0.197036
0.139575
0.147791
0.15559
0.122244
0.133164
0.11397
0.0949715
0.0828509
0.0931813
0.0795778
0.0817466
0.0733409
0.0627809
0.0448877
0.0399294
0.060603
0.0505513
0.0373318
0.0412292
0.0240503
0.0250315
0.0189128
0.0176533
0.2
0.2
0.23
0.21
0.21
0.2
0.18
0.2
0.23
0.18
0.22
0.17
0.15
0.16
0.19
0.16
0.19
0.24
0.22
0.18
0.17
0.16
0.17
0.21
0.16
0.19
0.21
0.2
0.17
0.16
0.23
0.16
0.2
0.2
0.24
0.15
0.16
0.18
0.15
0.219998
0.179667
0.225052
0.223147
0.168047
0.155255
0.161509
0.159826
0.183752
0.141171
0.124171
0.173473
0.140132
0.181119
0.131574
0.147929
0.172495
0.13137
0.131333
0.180539
0.12307
0.15586
0.131229
0.164011
0.147591
0.131177
0.163953
0.180333
0.196715
0.122941
0.155713
0.188483
0.172084
0.180267
0.163868
0.139278
0.172038
0.122877
0.188401
0.122848
0.128869
0.148522
0.123176
0.10799
0.0665463
0.0586274
0.0669867
0.052917
0.0743943
0.0508982
0.0486549
0.0639293
0.0652214
0.0575351
0.0432974
0.0437099
0.0332508
0.03579
0.0279295
0.0167877
0.00954975
0.16
0.18
0.22
0.22
0.18
0.19
0.23
0.17
0.22
0.23
0.22
0.16
0.21
0.17
0.22
0.22
0.16
0.15
0.19
0.22
0.24
0.21
0.19
0.18
0.2
0.16
0.22
0.2
0.18
0.17
0.17
0.19
0.19
0.18
0.22
0.23
0.21
0.18
0.19
0.18
0.22
0.239962
0.168913
0.222673
0.221549
0.141306
0.190481
0.127329
0.151479
0.175333
0.190762
0.19808
0.148069
0.139623
0.16409
0.122959
0.163868
0.163796
0.147374
0.139163
0.147333
0.18006
0.163684
0.171867
0.188237
0.180058
0.196434
0.196442
0.147336
0.147337
0.196447
0.147333
0.171881
0.122764
0.155489
0.147291
0.130911
0.179984
0.139061
0.187799
0.115057
0.154932
0.124094
0.102596
0.080898
0.0681488
0.0754139
0.0711279
0.070297
0.0570208
0.0509809
0.0507118
0.0448358
0.0486206
0.0483583
0.0443642
0.0294596
0.0242146
0.0142168
0.00940692
0.15
0.23
0.18
0.24
0.21
0.15
0.19
0.19
0.17
0.22
0.21
0.15
0.22
0.18
0.23
0.16
0.18
0.23
0.21
0.2
0.18
0.19
0.21
0.15
0.21
0.24
0.23
0.18
0.22
0.159999
0.179998
0.199995
0.179994
0.179996
0.229997
0.199998
0.209997
0.219998
0.209997
0.229997
0.229998
0.209999
0.219997
0.229767
0.236048
0.159387
0.189109
0.138931
0.162123
0.159812
0.141661
0.14917
0.198075
0.156201
0.123089
0.180352
0.171966
0.13912
0.163616
0.17993
0.196255
0.179885
0.179883
0.12265
0.188067
0.139014
0.196263
0.155386
0.171753
0.179944
0.171778
0.171793
0.147266
0.155463
0.12275
0.18824
0.122791
0.180124
0.18017
0.139034
0.162943
0.10668
0.0786038
0.109455
0.0982139
0.0945292
0.087934
0.075468
0.0744234
0.0698975
0.0454804
0.0486696
0.058492
0.0512263
0.0464093
0.0373644
0.0309556
0.0262177
0.0207945
0.0149333
0.17
0.15
0.17
0.17
0.2
0.24
0.16
0.2
0.24
0.2
0.21
0.18
0.16
0.16
0.21
0.16
0.16
0.2
0.15
0.16
0.15
0.19
0.17
0.21
0.15
0.21
0.199967
0.159737
0.209344
0.238826
0.23831
0.167965
0.148021
0.168033
0.207782
0.217771
0.15822
0.188064
0.197962
0.17828
0.198418
0.23817
0.167214
0.14337
0.221508
0.168211
0.199087
0.152821
0.193222
0.149712
0.190246
0.1399
0.155954
0.172009
0.155384
0.187923
0.171452
0.138742
0.122402
0.155036
0.195831
0.138717
0.163209
0.13874
0.138753
0.130603
0.187759
0.146958
0.187797
0.195982
0.179668
0.122513
0.122523
0.171545
0.138883
0.138895
0.187933
0.179781
0.18795
0.120352
0.16166
0.0869946
0.114892
0.0800478
0.0625645
0.0851539
0.0621558
0.0589372
0.0527861
0.0471702
0.0419837
0.0585576
0.0564505
0.0355505
0.0469704
0.033671
0.0258157
0.0188944
0.014981
0.0116503
0.22
0.23
0.15
0.17
0.24
0.2
0.22
0.23
0.23
0.24
0.21
0.17
0.19
0.15
0.24
0.19
0.16
0.17
0.16
0.22
0.24
0.23
0.18
0.19
0.149975
0.208957
0.184716
0.140767
0.165095
0.134772
0.169051
0.149768
0.131669
0.193023
0.139841
0.174744
0.208941
0.199081
0.206512
0.128238
0.178788
0.135491
0.143424
0.126067
0.167286
0.190888
0.123398
0.130806
0.195213
0.145537
0.120879
0.13673
0.184708
0.144331
0.144258
0.136223
0.168298
0.160317
0.160381
0.144414
0.184635
0.184744
0.184859
0.16085
0.128762
0.169108
0.128925
0.185446
0.169424
0.193745
0.12924
0.185893
0.177913
0.161831
0.161923
0.12151
0.145894
0.154087
0.170406
0.129743
0.15485
0.140534
0.124188
0.0843237
0.09445
0.0760739
0.0718457
0.0714992
0.0482898
0.0741728
0.0432638
0.0578758
0.0462599
0.0552999
0.0501666
0.0426398
0.0386516
0.023343
0.0235181
0.0138173
0.17
0.16
0.2
0.18
0.18
0.2
0.18
0.16
0.19
0.16
0.18
0.18
0.16
0.18
0.16
0.21
0.22
0.22
0.19
0.24
0.24
0.16
0.18999
0.179298
0.232733
0.209835
0.18019
0.180383
0.181586
0.129983
0.157805
0.14008
0.152801
0.107852
0.171853
0.163499
0.141827
0.113472
0.141948
0.163236
0.163207
0.134795
0.163259
0.13486
0.170251
0.10605
0.162042
0.119037
0.104557
0.159778
0.12445
0.16562
0.1377
0.1308
0.15851
0.158735
0.103752
0.138753
0.132212
0.111692
0.16809
0.105397
0.140997
0.106094
0.141926
0.135268
0.107137
0.12182
0.115027
0.129827
0.10854
0.123416
0.109252
0.131537
0.124639
0.147126
0.177148
0.133323
0.133834
0.149347
0.1699
0.108816
0.127224
0.0927163
0.0758152
0.0708832
0.0739947
0.0597715
0.0727256
0.0681508
0.0497373
0.0390944
0.0493889
0.0501484
0.0348949
0.0409919
0.0366641
0.0189966
0.0163342
0.0126638
)
;

boundaryField
{
    inlet
    {
        type            fixedValue;
        value           uniform 0;
    }
    outlet
    {
        type            zeroGradient;
    }
    walls
    {
        type            zeroGradient;
    }
}


// ************************************************************************* //
