/*--------------------------------*- C++ -*----------------------------------*\
| =========                 |                                                 |
| \\      /  F ield         | foam-extend: Open Source CFD                    |
|  \\    /   O peration     | Version:     5.0                                |
|   \\  /    A nd           | Web:         http://www.foam-extend.org         |
|    \\/     M anipulation  |                                                 |
\*---------------------------------------------------------------------------*/
FoamFile
{
    version     2.0;
    format      ascii;
    class       volScalarField;
    location    "4000";
    object      p;
}
// * * * * * * * * * * * * * * * * * * * * * * * * * * * * * * * * * * * * * //

dimensions      [1 -1 -2 0 0 0 0];

internalField   nonuniform List<scalar> 
1000
(
0.101067
0.103151
0.105208
0.107248
0.109276
0.111297
0.113312
0.115322
0.11733
0.119335
0.121339
0.123341
0.125342
0.127342
0.129341
0.131339
0.133335
0.135329
0.137322
0.139311
0.141297
0.143278
0.145253
0.147221
0.149179
0.151126
0.15306
0.154979
0.156884
0.158772
0.160645
0.162503
0.164346
0.166176
0.167993
0.1698
0.171598
0.173387
0.175167
0.176941
0.178706
0.180463
0.182208
0.183938
0.185647
0.187329
0.188979
0.1906
0.192186
0.193737
0.19526
0.196763
0.198253
0.199735
0.201212
0.202683
0.20415
0.20561
0.207084
0.20858
0.210067
0.211545
0.213018
0.21449
0.215963
0.217438
0.218914
0.220391
0.221869
0.223348
0.224828
0.226309
0.22779
0.22927
0.230749
0.232224
0.233692
0.235144
0.236617
0.2384
0.240473
0.242527
0.24452
0.246444
0.248315
0.250132
0.251883
0.253587
0.25523
0.25682
0.258351
0.259839
0.261272
0.262647
0.263971
0.265244
0.266454
0.267597
0.268663
0.269664
0.101038
0.1031
0.105146
0.107181
0.109206
0.111224
0.113237
0.115247
0.117254
0.119259
0.121262
0.123264
0.125265
0.127265
0.129264
0.131262
0.133258
0.135253
0.137246
0.139237
0.141224
0.143206
0.145182
0.147152
0.149111
0.15106
0.152995
0.154916
0.156821
0.15871
0.160582
0.162438
0.16428
0.166109
0.167926
0.169732
0.171528
0.173316
0.175096
0.17687
0.178636
0.180396
0.182145
0.18388
0.185596
0.187283
0.188932
0.190561
0.192152
0.1937
0.195215
0.196713
0.198199
0.19968
0.201155
0.202627
0.204097
0.205565
0.207038
0.208519
0.209999
0.211476
0.21295
0.214423
0.215897
0.217373
0.218849
0.220326
0.221805
0.223285
0.224765
0.226246
0.227727
0.229209
0.230689
0.232169
0.233645
0.235119
0.236601
0.238262
0.240302
0.242394
0.244427
0.246363
0.24824
0.250061
0.251813
0.253511
0.255153
0.256747
0.258283
0.259768
0.261196
0.262572
0.263899
0.265171
0.266377
0.267518
0.268591
0.269596
0.101023
0.103064
0.105097
0.107123
0.109142
0.111156
0.113167
0.115174
0.11718
0.119183
0.121186
0.123188
0.125188
0.127188
0.129187
0.131186
0.133183
0.135179
0.137173
0.139165
0.141154
0.143139
0.145119
0.147092
0.149055
0.151007
0.152946
0.154869
0.156775
0.158663
0.160534
0.162389
0.164229
0.166055
0.167869
0.169672
0.171467
0.173253
0.175033
0.176806
0.178574
0.180338
0.182096
0.183842
0.185577
0.187303
0.188964
0.190571
0.192132
0.193662
0.19517
0.196664
0.198149
0.199627
0.201101
0.202572
0.204042
0.205512
0.206984
0.20846
0.209936
0.211411
0.212886
0.21436
0.215834
0.21731
0.218787
0.220264
0.221743
0.223223
0.224704
0.226186
0.227668
0.229151
0.230635
0.232119
0.233606
0.235099
0.236612
0.238191
0.240047
0.242213
0.244302
0.246282
0.248166
0.249984
0.251743
0.253443
0.255084
0.256674
0.258204
0.259691
0.261126
0.262505
0.263829
0.265099
0.266308
0.267446
0.268526
0.269534
0.101013
0.103036
0.105056
0.107071
0.109083
0.111092
0.113099
0.115104
0.117107
0.11911
0.121111
0.123112
0.125113
0.127113
0.129112
0.131111
0.133109
0.135106
0.137102
0.139097
0.141089
0.143078
0.145063
0.147041
0.149011
0.150969
0.152912
0.154838
0.156746
0.158634
0.160503
0.162355
0.16419
0.166012
0.167822
0.169622
0.171413
0.173197
0.174975
0.176747
0.178516
0.180288
0.182062
0.183857
0.185619
0.187328
0.18896
0.190551
0.192103
0.193628
0.195131
0.196623
0.198104
0.19958
0.201051
0.202521
0.20399
0.205459
0.20693
0.208402
0.209876
0.21135
0.212824
0.214298
0.215773
0.217248
0.218725
0.220204
0.221683
0.223163
0.224645
0.226127
0.227611
0.229096
0.230582
0.23207
0.233562
0.235061
0.236574
0.238126
0.239918
0.24206
0.244188
0.246182
0.248078
0.249906
0.251665
0.253367
0.255009
0.256596
0.25813
0.259618
0.261061
0.26244
0.263763
0.265032
0.266233
0.267375
0.268451
0.269459
0.101004
0.103012
0.105018
0.107023
0.109027
0.11103
0.113033
0.115034
0.117036
0.119036
0.121037
0.123037
0.125037
0.127037
0.129037
0.131037
0.133036
0.135035
0.137033
0.139031
0.141027
0.143022
0.145013
0.146999
0.148977
0.150944
0.152895
0.154827
0.156736
0.158624
0.160489
0.162336
0.164166
0.165982
0.167786
0.169581
0.171367
0.173148
0.174922
0.176691
0.178455
0.180253
0.182082
0.183868
0.185613
0.187305
0.18894
0.190525
0.192073
0.193595
0.195097
0.196584
0.198063
0.199535
0.201004
0.202472
0.203939
0.205406
0.206875
0.208345
0.209817
0.211289
0.212762
0.214236
0.215711
0.217187
0.218664
0.220142
0.221622
0.223103
0.224585
0.226069
0.227554
0.22904
0.230528
0.232018
0.233512
0.235009
0.236508
0.238036
0.239851
0.241983
0.244089
0.246077
0.24798
0.249813
0.251576
0.253284
0.254925
0.256516
0.258059
0.259552
0.26099
0.262371
0.263697
0.264962
0.266168
0.267307
0.268375
0.269369
0.100996
0.102988
0.104982
0.106977
0.108973
0.11097
0.112967
0.114966
0.116964
0.118964
0.120963
0.122963
0.124963
0.126963
0.128963
0.130963
0.132963
0.134964
0.136965
0.138966
0.140967
0.142968
0.144968
0.146965
0.148956
0.150936
0.152898
0.154837
0.15675
0.158635
0.160495
0.162334
0.164156
0.165963
0.167759
0.169547
0.171328
0.173104
0.174876
0.176645
0.178413
0.180189
0.181977
0.183786
0.185577
0.187283
0.188931
0.190507
0.192053
0.193571
0.195067
0.19655
0.198023
0.199491
0.200957
0.202422
0.203887
0.205352
0.206819
0.208287
0.209757
0.211228
0.212701
0.214174
0.215649
0.217125
0.218602
0.220081
0.221561
0.223042
0.224525
0.226009
0.227495
0.228983
0.230472
0.231964
0.233459
0.234957
0.236462
0.237989
0.239725
0.241834
0.24398
0.245993
0.2479
0.249732
0.251499
0.253204
0.25485
0.25644
0.257981
0.259474
0.260914
0.262301
0.26363
0.264896
0.266096
0.267233
0.268298
0.269292
0.100987
0.102964
0.104944
0.106929
0.108917
0.110908
0.112901
0.114896
0.116893
0.118891
0.120889
0.122888
0.124887
0.126887
0.128888
0.130889
0.132891
0.134893
0.136897
0.138901
0.140907
0.142915
0.144925
0.146937
0.148945
0.150945
0.152924
0.154874
0.15679
0.15867
0.160522
0.16235
0.16416
0.165955
0.167741
0.169519
0.171294
0.173065
0.174833
0.1766
0.178366
0.180134
0.181908
0.183686
0.185467
0.187219
0.188892
0.190474
0.19202
0.193533
0.195026
0.196507
0.19798
0.199445
0.200908
0.202371
0.203833
0.205296
0.206761
0.208228
0.209697
0.211167
0.212638
0.214111
0.215586
0.217062
0.218539
0.220018
0.221498
0.22298
0.224463
0.225948
0.227435
0.228923
0.230413
0.231906
0.233401
0.234898
0.2364
0.237921
0.23963
0.241744
0.243874
0.245903
0.24782
0.249656
0.251421
0.253124
0.254771
0.256364
0.257901
0.259397
0.260842
0.262228
0.263556
0.26482
0.26602
0.267157
0.268228
0.269227
0.100977
0.102936
0.104903
0.106877
0.108858
0.110844
0.112833
0.114826
0.11682
0.118817
0.120814
0.122812
0.124812
0.126812
0.128813
0.130814
0.132817
0.134821
0.136827
0.138835
0.140846
0.142861
0.144882
0.14691
0.148945
0.150973
0.152979
0.154947
0.156866
0.158737
0.160573
0.162387
0.164181
0.16596
0.16773
0.169497
0.171265
0.17303
0.174794
0.176557
0.178317
0.180074
0.181844
0.183638
0.185425
0.187144
0.188802
0.190394
0.19195
0.193469
0.194969
0.196451
0.197925
0.199391
0.200853
0.202314
0.203775
0.205237
0.206701
0.208167
0.209634
0.211104
0.212575
0.214048
0.215522
0.216998
0.218476
0.219955
0.221435
0.222917
0.224401
0.225886
0.227373
0.228862
0.230353
0.231847
0.233341
0.234837
0.236325
0.23783
0.239593
0.241687
0.243796
0.245802
0.24772
0.249565
0.251331
0.253036
0.254684
0.256279
0.257822
0.259321
0.260765
0.262149
0.263482
0.264745
0.265945
0.267079
0.268151
0.269151
0.100962
0.1029
0.104854
0.106819
0.108794
0.110776
0.112763
0.114753
0.116746
0.118741
0.120738
0.122736
0.124735
0.126735
0.128736
0.130739
0.132742
0.134747
0.136755
0.138765
0.14078
0.142801
0.144831
0.146878
0.14895
0.151026
0.153087
0.155089
0.15701
0.158856
0.160673
0.162456
0.164224
0.165984
0.167738
0.169494
0.171253
0.173012
0.174772
0.17653
0.17829
0.180047
0.181809
0.183576
0.18533
0.187041
0.188697
0.190304
0.191872
0.193402
0.194907
0.196394
0.197869
0.199335
0.200797
0.202257
0.203716
0.205177
0.20664
0.208105
0.209572
0.211041
0.212512
0.213984
0.215459
0.216935
0.218412
0.219891
0.221372
0.222854
0.224338
0.225824
0.227311
0.228801
0.230293
0.231787
0.233284
0.234783
0.236287
0.237804
0.23947
0.241541
0.243689
0.245711
0.247639
0.249479
0.251249
0.252957
0.254606
0.256207
0.257745
0.259242
0.260685
0.262076
0.263406
0.264674
0.265877
0.267007
0.268082
0.26908
0.100933
0.102849
0.104792
0.106752
0.108724
0.110703
0.112688
0.114678
0.11667
0.118665
0.120661
0.122659
0.124658
0.126658
0.128659
0.130662
0.132666
0.134671
0.13668
0.138692
0.140708
0.142731
0.144764
0.146822
0.148976
0.15117
0.15325
0.155229
0.15712
0.158933
0.160735
0.162503
0.164259
0.165999
0.16775
0.169489
0.171231
0.172981
0.174738
0.176496
0.178254
0.18001
0.181769
0.183524
0.185265
0.18697
0.188633
0.190245
0.191817
0.193357
0.194865
0.196355
0.197828
0.199293
0.200754
0.202212
0.203669
0.20513
0.206591
0.208056
0.209522
0.21099
0.212461
0.213933
0.215407
0.216883
0.218361
0.21984
0.22132
0.222802
0.224286
0.225772
0.227259
0.228749
0.230241
0.231735
0.233233
0.234736
0.236249
0.237781
0.2394
0.241413
0.243584
0.245633
0.247563
0.249406
0.25118
0.252888
0.254543
0.25614
0.257677
0.259168
0.260615
0.262005
0.263331
0.264603
0.265807
0.266934
0.268005
0.269005
)
;

boundaryField
{
    inlet
    {
        type            fluxPressure;
        gradient        nonuniform List<scalar> 10(0.00363636 0.00363636 0.00363636 0.00363636 0.00363636 0.00363636 0.00363636 0.00363636 0.00363636 0.00363636);
        value           nonuniform List<scalar> 10(0.269845 0.269778 0.269716 0.269641 0.269551 0.269474 0.269409 0.269332 0.269262 0.269187);
    }
    outlet
    {
        type            fixedValue;
        value           uniform 0.1;
    }
    walls
    {
        type            fluxPressure;
        gradient        uniform 0;
        value           nonuniform List<scalar> 
2200
(
0.101067
0.103151
0.105208
0.107248
0.109276
0.111297
0.113312
0.115322
0.11733
0.119335
0.121339
0.123341
0.125342
0.127342
0.129341
0.131339
0.133335
0.135329
0.137322
0.139311
0.141297
0.143278
0.145253
0.147221
0.149179
0.151126
0.15306
0.154979
0.156884
0.158772
0.160645
0.162503
0.164346
0.166176
0.167993
0.1698
0.171598
0.173387
0.175167
0.176941
0.178706
0.180463
0.182208
0.183938
0.185647
0.187329
0.188979
0.1906
0.192186
0.193737
0.19526
0.196763
0.198253
0.199735
0.201212
0.202683
0.20415
0.20561
0.207084
0.20858
0.210067
0.211545
0.213018
0.21449
0.215963
0.217438
0.218914
0.220391
0.221869
0.223348
0.224828
0.226309
0.22779
0.22927
0.230749
0.232224
0.233692
0.235144
0.236617
0.2384
0.240473
0.242527
0.24452
0.246444
0.248315
0.250132
0.251883
0.253587
0.25523
0.25682
0.258351
0.259839
0.261272
0.262647
0.263971
0.265244
0.266454
0.267597
0.268663
0.269664
0.101038
0.1031
0.105146
0.107181
0.109206
0.111224
0.113237
0.115247
0.117254
0.119259
0.121262
0.123264
0.125265
0.127265
0.129264
0.131262
0.133258
0.135253
0.137246
0.139237
0.141224
0.143206
0.145182
0.147152
0.149111
0.15106
0.152995
0.154916
0.156821
0.15871
0.160582
0.162438
0.16428
0.166109
0.167926
0.169732
0.171528
0.173316
0.175096
0.17687
0.178636
0.180396
0.182145
0.18388
0.185596
0.187283
0.188932
0.190561
0.192152
0.1937
0.195215
0.196713
0.198199
0.19968
0.201155
0.202627
0.204097
0.205565
0.207038
0.208519
0.209999
0.211476
0.21295
0.214423
0.215897
0.217373
0.218849
0.220326
0.221805
0.223285
0.224765
0.226246
0.227727
0.229209
0.230689
0.232169
0.233645
0.235119
0.236601
0.238262
0.240302
0.242394
0.244427
0.246363
0.24824
0.250061
0.251813
0.253511
0.255153
0.256747
0.258283
0.259768
0.261196
0.262572
0.263899
0.265171
0.266377
0.267518
0.268591
0.269596
0.101023
0.103064
0.105097
0.107123
0.109142
0.111156
0.113167
0.115174
0.11718
0.119183
0.121186
0.123188
0.125188
0.127188
0.129187
0.131186
0.133183
0.135179
0.137173
0.139165
0.141154
0.143139
0.145119
0.147092
0.149055
0.151007
0.152946
0.154869
0.156775
0.158663
0.160534
0.162389
0.164229
0.166055
0.167869
0.169672
0.171467
0.173253
0.175033
0.176806
0.178574
0.180338
0.182096
0.183842
0.185577
0.187303
0.188964
0.190571
0.192132
0.193662
0.19517
0.196664
0.198149
0.199627
0.201101
0.202572
0.204042
0.205512
0.206984
0.20846
0.209936
0.211411
0.212886
0.21436
0.215834
0.21731
0.218787
0.220264
0.221743
0.223223
0.224704
0.226186
0.227668
0.229151
0.230635
0.232119
0.233606
0.235099
0.236612
0.238191
0.240047
0.242213
0.244302
0.246282
0.248166
0.249984
0.251743
0.253443
0.255084
0.256674
0.258204
0.259691
0.261126
0.262505
0.263829
0.265099
0.266308
0.267446
0.268526
0.269534
0.101013
0.103036
0.105056
0.107071
0.109083
0.111092
0.113099
0.115104
0.117107
0.11911
0.121111
0.123112
0.125113
0.127113
0.129112
0.131111
0.133109
0.135106
0.137102
0.139097
0.141089
0.143078
0.145063
0.147041
0.149011
0.150969
0.152912
0.154838
0.156746
0.158634
0.160503
0.162355
0.16419
0.166012
0.167822
0.169622
0.171413
0.173197
0.174975
0.176747
0.178516
0.180288
0.182062
0.183857
0.185619
0.187328
0.18896
0.190551
0.192103
0.193628
0.195131
0.196623
0.198104
0.19958
0.201051
0.202521
0.20399
0.205459
0.20693
0.208402
0.209876
0.21135
0.212824
0.214298
0.215773
0.217248
0.218725
0.220204
0.221683
0.223163
0.224645
0.226127
0.227611
0.229096
0.230582
0.23207
0.233562
0.235061
0.236574
0.238126
0.239918
0.24206
0.244188
0.246182
0.248078
0.249906
0.251665
0.253367
0.255009
0.256596
0.25813
0.259618
0.261061
0.26244
0.263763
0.265032
0.266233
0.267375
0.268451
0.269459
0.101004
0.103012
0.105018
0.107023
0.109027
0.11103
0.113033
0.115034
0.117036
0.119036
0.121037
0.123037
0.125037
0.127037
0.129037
0.131037
0.133036
0.135035
0.137033
0.139031
0.141027
0.143022
0.145013
0.146999
0.148977
0.150944
0.152895
0.154827
0.156736
0.158624
0.160489
0.162336
0.164166
0.165982
0.167786
0.169581
0.171367
0.173148
0.174922
0.176691
0.178455
0.180253
0.182082
0.183868
0.185613
0.187305
0.18894
0.190525
0.192073
0.193595
0.195097
0.196584
0.198063
0.199535
0.201004
0.202472
0.203939
0.205406
0.206875
0.208345
0.209817
0.211289
0.212762
0.214236
0.215711
0.217187
0.218664
0.220142
0.221622
0.223103
0.224585
0.226069
0.227554
0.22904
0.230528
0.232018
0.233512
0.235009
0.236508
0.238036
0.239851
0.241983
0.244089
0.246077
0.24798
0.249813
0.251576
0.253284
0.254925
0.256516
0.258059
0.259552
0.26099
0.262371
0.263697
0.264962
0.266168
0.267307
0.268375
0.269369
0.100996
0.102988
0.104982
0.106977
0.108973
0.11097
0.112967
0.114966
0.116964
0.118964
0.120963
0.122963
0.124963
0.126963
0.128963
0.130963
0.132963
0.134964
0.136965
0.138966
0.140967
0.142968
0.144968
0.146965
0.148956
0.150936
0.152898
0.154837
0.15675
0.158635
0.160495
0.162334
0.164156
0.165963
0.167759
0.169547
0.171328
0.173104
0.174876
0.176645
0.178413
0.180189
0.181977
0.183786
0.185577
0.187283
0.188931
0.190507
0.192053
0.193571
0.195067
0.19655
0.198023
0.199491
0.200957
0.202422
0.203887
0.205352
0.206819
0.208287
0.209757
0.211228
0.212701
0.214174
0.215649
0.217125
0.218602
0.220081
0.221561
0.223042
0.224525
0.226009
0.227495
0.228983
0.230472
0.231964
0.233459
0.234957
0.236462
0.237989
0.239725
0.241834
0.24398
0.245993
0.2479
0.249732
0.251499
0.253204
0.25485
0.25644
0.257981
0.259474
0.260914
0.262301
0.26363
0.264896
0.266096
0.267233
0.268298
0.269292
0.100987
0.102964
0.104944
0.106929
0.108917
0.110908
0.112901
0.114896
0.116893
0.118891
0.120889
0.122888
0.124887
0.126887
0.128888
0.130889
0.132891
0.134893
0.136897
0.138901
0.140907
0.142915
0.144925
0.146937
0.148945
0.150945
0.152924
0.154874
0.15679
0.15867
0.160522
0.16235
0.16416
0.165955
0.167741
0.169519
0.171294
0.173065
0.174833
0.1766
0.178366
0.180134
0.181908
0.183686
0.185467
0.187219
0.188892
0.190474
0.19202
0.193533
0.195026
0.196507
0.19798
0.199445
0.200908
0.202371
0.203833
0.205296
0.206761
0.208228
0.209697
0.211167
0.212638
0.214111
0.215586
0.217062
0.218539
0.220018
0.221498
0.22298
0.224463
0.225948
0.227435
0.228923
0.230413
0.231906
0.233401
0.234898
0.2364
0.237921
0.23963
0.241744
0.243874
0.245903
0.24782
0.249656
0.251421
0.253124
0.254771
0.256364
0.257901
0.259397
0.260842
0.262228
0.263556
0.26482
0.26602
0.267157
0.268228
0.269227
0.100977
0.102936
0.104903
0.106877
0.108858
0.110844
0.112833
0.114826
0.11682
0.118817
0.120814
0.122812
0.124812
0.126812
0.128813
0.130814
0.132817
0.134821
0.136827
0.138835
0.140846
0.142861
0.144882
0.14691
0.148945
0.150973
0.152979
0.154947
0.156866
0.158737
0.160573
0.162387
0.164181
0.16596
0.16773
0.169497
0.171265
0.17303
0.174794
0.176557
0.178317
0.180074
0.181844
0.183638
0.185425
0.187144
0.188802
0.190394
0.19195
0.193469
0.194969
0.196451
0.197925
0.199391
0.200853
0.202314
0.203775
0.205237
0.206701
0.208167
0.209634
0.211104
0.212575
0.214048
0.215522
0.216998
0.218476
0.219955
0.221435
0.222917
0.224401
0.225886
0.227373
0.228862
0.230353
0.231847
0.233341
0.234837
0.236325
0.23783
0.239593
0.241687
0.243796
0.245802
0.24772
0.249565
0.251331
0.253036
0.254684
0.256279
0.257822
0.259321
0.260765
0.262149
0.263482
0.264745
0.265945
0.267079
0.268151
0.269151
0.100962
0.1029
0.104854
0.106819
0.108794
0.110776
0.112763
0.114753
0.116746
0.118741
0.120738
0.122736
0.124735
0.126735
0.128736
0.130739
0.132742
0.134747
0.136755
0.138765
0.14078
0.142801
0.144831
0.146878
0.14895
0.151026
0.153087
0.155089
0.15701
0.158856
0.160673
0.162456
0.164224
0.165984
0.167738
0.169494
0.171253
0.173012
0.174772
0.17653
0.17829
0.180047
0.181809
0.183576
0.18533
0.187041
0.188697
0.190304
0.191872
0.193402
0.194907
0.196394
0.197869
0.199335
0.200797
0.202257
0.203716
0.205177
0.20664
0.208105
0.209572
0.211041
0.212512
0.213984
0.215459
0.216935
0.218412
0.219891
0.221372
0.222854
0.224338
0.225824
0.227311
0.228801
0.230293
0.231787
0.233284
0.234783
0.236287
0.237804
0.23947
0.241541
0.243689
0.245711
0.247639
0.249479
0.251249
0.252957
0.254606
0.256207
0.257745
0.259242
0.260685
0.262076
0.263406
0.264674
0.265877
0.267007
0.268082
0.26908
0.100933
0.102849
0.104792
0.106752
0.108724
0.110703
0.112688
0.114678
0.11667
0.118665
0.120661
0.122659
0.124658
0.126658
0.128659
0.130662
0.132666
0.134671
0.13668
0.138692
0.140708
0.142731
0.144764
0.146822
0.148976
0.15117
0.15325
0.155229
0.15712
0.158933
0.160735
0.162503
0.164259
0.165999
0.16775
0.169489
0.171231
0.172981
0.174738
0.176496
0.178254
0.18001
0.181769
0.183524
0.185265
0.18697
0.188633
0.190245
0.191817
0.193357
0.194865
0.196355
0.197828
0.199293
0.200754
0.202212
0.203669
0.20513
0.206591
0.208056
0.209522
0.21099
0.212461
0.213933
0.215407
0.216883
0.218361
0.21984
0.22132
0.222802
0.224286
0.225772
0.227259
0.228749
0.230241
0.231735
0.233233
0.234736
0.236249
0.237781
0.2394
0.241413
0.243584
0.245633
0.247563
0.249406
0.25118
0.252888
0.254543
0.25614
0.257677
0.259168
0.260615
0.262005
0.263331
0.264603
0.265807
0.266934
0.268005
0.269005
0.101067
0.103151
0.105208
0.107248
0.109276
0.111297
0.113312
0.115322
0.11733
0.119335
0.121339
0.123341
0.125342
0.127342
0.129341
0.131339
0.133335
0.135329
0.137322
0.139311
0.141297
0.143278
0.145253
0.147221
0.149179
0.151126
0.15306
0.154979
0.156884
0.158772
0.160645
0.162503
0.164346
0.166176
0.167993
0.1698
0.171598
0.173387
0.175167
0.176941
0.178706
0.180463
0.182208
0.183938
0.185647
0.187329
0.188979
0.1906
0.192186
0.193737
0.19526
0.196763
0.198253
0.199735
0.201212
0.202683
0.20415
0.20561
0.207084
0.20858
0.210067
0.211545
0.213018
0.21449
0.215963
0.217438
0.218914
0.220391
0.221869
0.223348
0.224828
0.226309
0.22779
0.22927
0.230749
0.232224
0.233692
0.235144
0.236617
0.2384
0.240473
0.242527
0.24452
0.246444
0.248315
0.250132
0.251883
0.253587
0.25523
0.25682
0.258351
0.259839
0.261272
0.262647
0.263971
0.265244
0.266454
0.267597
0.268663
0.269664
0.101038
0.1031
0.105146
0.107181
0.109206
0.111224
0.113237
0.115247
0.117254
0.119259
0.121262
0.123264
0.125265
0.127265
0.129264
0.131262
0.133258
0.135253
0.137246
0.139237
0.141224
0.143206
0.145182
0.147152
0.149111
0.15106
0.152995
0.154916
0.156821
0.15871
0.160582
0.162438
0.16428
0.166109
0.167926
0.169732
0.171528
0.173316
0.175096
0.17687
0.178636
0.180396
0.182145
0.18388
0.185596
0.187283
0.188932
0.190561
0.192152
0.1937
0.195215
0.196713
0.198199
0.19968
0.201155
0.202627
0.204097
0.205565
0.207038
0.208519
0.209999
0.211476
0.21295
0.214423
0.215897
0.217373
0.218849
0.220326
0.221805
0.223285
0.224765
0.226246
0.227727
0.229209
0.230689
0.232169
0.233645
0.235119
0.236601
0.238262
0.240302
0.242394
0.244427
0.246363
0.24824
0.250061
0.251813
0.253511
0.255153
0.256747
0.258283
0.259768
0.261196
0.262572
0.263899
0.265171
0.266377
0.267518
0.268591
0.269596
0.101023
0.103064
0.105097
0.107123
0.109142
0.111156
0.113167
0.115174
0.11718
0.119183
0.121186
0.123188
0.125188
0.127188
0.129187
0.131186
0.133183
0.135179
0.137173
0.139165
0.141154
0.143139
0.145119
0.147092
0.149055
0.151007
0.152946
0.154869
0.156775
0.158663
0.160534
0.162389
0.164229
0.166055
0.167869
0.169672
0.171467
0.173253
0.175033
0.176806
0.178574
0.180338
0.182096
0.183842
0.185577
0.187303
0.188964
0.190571
0.192132
0.193662
0.19517
0.196664
0.198149
0.199627
0.201101
0.202572
0.204042
0.205512
0.206984
0.20846
0.209936
0.211411
0.212886
0.21436
0.215834
0.21731
0.218787
0.220264
0.221743
0.223223
0.224704
0.226186
0.227668
0.229151
0.230635
0.232119
0.233606
0.235099
0.236612
0.238191
0.240047
0.242213
0.244302
0.246282
0.248166
0.249984
0.251743
0.253443
0.255084
0.256674
0.258204
0.259691
0.261126
0.262505
0.263829
0.265099
0.266308
0.267446
0.268526
0.269534
0.101013
0.103036
0.105056
0.107071
0.109083
0.111092
0.113099
0.115104
0.117107
0.11911
0.121111
0.123112
0.125113
0.127113
0.129112
0.131111
0.133109
0.135106
0.137102
0.139097
0.141089
0.143078
0.145063
0.147041
0.149011
0.150969
0.152912
0.154838
0.156746
0.158634
0.160503
0.162355
0.16419
0.166012
0.167822
0.169622
0.171413
0.173197
0.174975
0.176747
0.178516
0.180288
0.182062
0.183857
0.185619
0.187328
0.18896
0.190551
0.192103
0.193628
0.195131
0.196623
0.198104
0.19958
0.201051
0.202521
0.20399
0.205459
0.20693
0.208402
0.209876
0.21135
0.212824
0.214298
0.215773
0.217248
0.218725
0.220204
0.221683
0.223163
0.224645
0.226127
0.227611
0.229096
0.230582
0.23207
0.233562
0.235061
0.236574
0.238126
0.239918
0.24206
0.244188
0.246182
0.248078
0.249906
0.251665
0.253367
0.255009
0.256596
0.25813
0.259618
0.261061
0.26244
0.263763
0.265032
0.266233
0.267375
0.268451
0.269459
0.101004
0.103012
0.105018
0.107023
0.109027
0.11103
0.113033
0.115034
0.117036
0.119036
0.121037
0.123037
0.125037
0.127037
0.129037
0.131037
0.133036
0.135035
0.137033
0.139031
0.141027
0.143022
0.145013
0.146999
0.148977
0.150944
0.152895
0.154827
0.156736
0.158624
0.160489
0.162336
0.164166
0.165982
0.167786
0.169581
0.171367
0.173148
0.174922
0.176691
0.178455
0.180253
0.182082
0.183868
0.185613
0.187305
0.18894
0.190525
0.192073
0.193595
0.195097
0.196584
0.198063
0.199535
0.201004
0.202472
0.203939
0.205406
0.206875
0.208345
0.209817
0.211289
0.212762
0.214236
0.215711
0.217187
0.218664
0.220142
0.221622
0.223103
0.224585
0.226069
0.227554
0.22904
0.230528
0.232018
0.233512
0.235009
0.236508
0.238036
0.239851
0.241983
0.244089
0.246077
0.24798
0.249813
0.251576
0.253284
0.254925
0.256516
0.258059
0.259552
0.26099
0.262371
0.263697
0.264962
0.266168
0.267307
0.268375
0.269369
0.100996
0.102988
0.104982
0.106977
0.108973
0.11097
0.112967
0.114966
0.116964
0.118964
0.120963
0.122963
0.124963
0.126963
0.128963
0.130963
0.132963
0.134964
0.136965
0.138966
0.140967
0.142968
0.144968
0.146965
0.148956
0.150936
0.152898
0.154837
0.15675
0.158635
0.160495
0.162334
0.164156
0.165963
0.167759
0.169547
0.171328
0.173104
0.174876
0.176645
0.178413
0.180189
0.181977
0.183786
0.185577
0.187283
0.188931
0.190507
0.192053
0.193571
0.195067
0.19655
0.198023
0.199491
0.200957
0.202422
0.203887
0.205352
0.206819
0.208287
0.209757
0.211228
0.212701
0.214174
0.215649
0.217125
0.218602
0.220081
0.221561
0.223042
0.224525
0.226009
0.227495
0.228983
0.230472
0.231964
0.233459
0.234957
0.236462
0.237989
0.239725
0.241834
0.24398
0.245993
0.2479
0.249732
0.251499
0.253204
0.25485
0.25644
0.257981
0.259474
0.260914
0.262301
0.26363
0.264896
0.266096
0.267233
0.268298
0.269292
0.100987
0.102964
0.104944
0.106929
0.108917
0.110908
0.112901
0.114896
0.116893
0.118891
0.120889
0.122888
0.124887
0.126887
0.128888
0.130889
0.132891
0.134893
0.136897
0.138901
0.140907
0.142915
0.144925
0.146937
0.148945
0.150945
0.152924
0.154874
0.15679
0.15867
0.160522
0.16235
0.16416
0.165955
0.167741
0.169519
0.171294
0.173065
0.174833
0.1766
0.178366
0.180134
0.181908
0.183686
0.185467
0.187219
0.188892
0.190474
0.19202
0.193533
0.195026
0.196507
0.19798
0.199445
0.200908
0.202371
0.203833
0.205296
0.206761
0.208228
0.209697
0.211167
0.212638
0.214111
0.215586
0.217062
0.218539
0.220018
0.221498
0.22298
0.224463
0.225948
0.227435
0.228923
0.230413
0.231906
0.233401
0.234898
0.2364
0.237921
0.23963
0.241744
0.243874
0.245903
0.24782
0.249656
0.251421
0.253124
0.254771
0.256364
0.257901
0.259397
0.260842
0.262228
0.263556
0.26482
0.26602
0.267157
0.268228
0.269227
0.100977
0.102936
0.104903
0.106877
0.108858
0.110844
0.112833
0.114826
0.11682
0.118817
0.120814
0.122812
0.124812
0.126812
0.128813
0.130814
0.132817
0.134821
0.136827
0.138835
0.140846
0.142861
0.144882
0.14691
0.148945
0.150973
0.152979
0.154947
0.156866
0.158737
0.160573
0.162387
0.164181
0.16596
0.16773
0.169497
0.171265
0.17303
0.174794
0.176557
0.178317
0.180074
0.181844
0.183638
0.185425
0.187144
0.188802
0.190394
0.19195
0.193469
0.194969
0.196451
0.197925
0.199391
0.200853
0.202314
0.203775
0.205237
0.206701
0.208167
0.209634
0.211104
0.212575
0.214048
0.215522
0.216998
0.218476
0.219955
0.221435
0.222917
0.224401
0.225886
0.227373
0.228862
0.230353
0.231847
0.233341
0.234837
0.236325
0.23783
0.239593
0.241687
0.243796
0.245802
0.24772
0.249565
0.251331
0.253036
0.254684
0.256279
0.257822
0.259321
0.260765
0.262149
0.263482
0.264745
0.265945
0.267079
0.268151
0.269151
0.100962
0.1029
0.104854
0.106819
0.108794
0.110776
0.112763
0.114753
0.116746
0.118741
0.120738
0.122736
0.124735
0.126735
0.128736
0.130739
0.132742
0.134747
0.136755
0.138765
0.14078
0.142801
0.144831
0.146878
0.14895
0.151026
0.153087
0.155089
0.15701
0.158856
0.160673
0.162456
0.164224
0.165984
0.167738
0.169494
0.171253
0.173012
0.174772
0.17653
0.17829
0.180047
0.181809
0.183576
0.18533
0.187041
0.188697
0.190304
0.191872
0.193402
0.194907
0.196394
0.197869
0.199335
0.200797
0.202257
0.203716
0.205177
0.20664
0.208105
0.209572
0.211041
0.212512
0.213984
0.215459
0.216935
0.218412
0.219891
0.221372
0.222854
0.224338
0.225824
0.227311
0.228801
0.230293
0.231787
0.233284
0.234783
0.236287
0.237804
0.23947
0.241541
0.243689
0.245711
0.247639
0.249479
0.251249
0.252957
0.254606
0.256207
0.257745
0.259242
0.260685
0.262076
0.263406
0.264674
0.265877
0.267007
0.268082
0.26908
0.100933
0.102849
0.104792
0.106752
0.108724
0.110703
0.112688
0.114678
0.11667
0.118665
0.120661
0.122659
0.124658
0.126658
0.128659
0.130662
0.132666
0.134671
0.13668
0.138692
0.140708
0.142731
0.144764
0.146822
0.148976
0.15117
0.15325
0.155229
0.15712
0.158933
0.160735
0.162503
0.164259
0.165999
0.16775
0.169489
0.171231
0.172981
0.174738
0.176496
0.178254
0.18001
0.181769
0.183524
0.185265
0.18697
0.188633
0.190245
0.191817
0.193357
0.194865
0.196355
0.197828
0.199293
0.200754
0.202212
0.203669
0.20513
0.206591
0.208056
0.209522
0.21099
0.212461
0.213933
0.215407
0.216883
0.218361
0.21984
0.22132
0.222802
0.224286
0.225772
0.227259
0.228749
0.230241
0.231735
0.233233
0.234736
0.236249
0.237781
0.2394
0.241413
0.243584
0.245633
0.247563
0.249406
0.25118
0.252888
0.254543
0.25614
0.257677
0.259168
0.260615
0.262005
0.263331
0.264603
0.265807
0.266934
0.268005
0.269005
0.101067
0.103151
0.105208
0.107248
0.109276
0.111297
0.113312
0.115322
0.11733
0.119335
0.121339
0.123341
0.125342
0.127342
0.129341
0.131339
0.133335
0.135329
0.137322
0.139311
0.141297
0.143278
0.145253
0.147221
0.149179
0.151126
0.15306
0.154979
0.156884
0.158772
0.160645
0.162503
0.164346
0.166176
0.167993
0.1698
0.171598
0.173387
0.175167
0.176941
0.178706
0.180463
0.182208
0.183938
0.185647
0.187329
0.188979
0.1906
0.192186
0.193737
0.19526
0.196763
0.198253
0.199735
0.201212
0.202683
0.20415
0.20561
0.207084
0.20858
0.210067
0.211545
0.213018
0.21449
0.215963
0.217438
0.218914
0.220391
0.221869
0.223348
0.224828
0.226309
0.22779
0.22927
0.230749
0.232224
0.233692
0.235144
0.236617
0.2384
0.240473
0.242527
0.24452
0.246444
0.248315
0.250132
0.251883
0.253587
0.25523
0.25682
0.258351
0.259839
0.261272
0.262647
0.263971
0.265244
0.266454
0.267597
0.268663
0.269664
0.100933
0.102849
0.104792
0.106752
0.108724
0.110703
0.112688
0.114678
0.11667
0.118665
0.120661
0.122659
0.124658
0.126658
0.128659
0.130662
0.132666
0.134671
0.13668
0.138692
0.140708
0.142731
0.144764
0.146822
0.148976
0.15117
0.15325
0.155229
0.15712
0.158933
0.160735
0.162503
0.164259
0.165999
0.16775
0.169489
0.171231
0.172981
0.174738
0.176496
0.178254
0.18001
0.181769
0.183524
0.185265
0.18697
0.188633
0.190245
0.191817
0.193357
0.194865
0.196355
0.197828
0.199293
0.200754
0.202212
0.203669
0.20513
0.206591
0.208056
0.209522
0.21099
0.212461
0.213933
0.215407
0.216883
0.218361
0.21984
0.22132
0.222802
0.224286
0.225772
0.227259
0.228749
0.230241
0.231735
0.233233
0.234736
0.236249
0.237781
0.2394
0.241413
0.243584
0.245633
0.247563
0.249406
0.25118
0.252888
0.254543
0.25614
0.257677
0.259168
0.260615
0.262005
0.263331
0.264603
0.265807
0.266934
0.268005
0.269005
)
;
    }
}

