/*--------------------------------*- C++ -*----------------------------------*\
| =========                 |                                                 |
| \\      /  F ield         | foam-extend: Open Source CFD                    |
|  \\    /   O peration     | Version:     5.0                                |
|   \\  /    A nd           | Web:         http://www.foam-extend.org         |
|    \\/     M anipulation  |                                                 |
\*---------------------------------------------------------------------------*/
FoamFile
{
    version     2.0;
    format      ascii;
    class       surfaceScalarField;
    location    "4000";
    object      phi;
}
// * * * * * * * * * * * * * * * * * * * * * * * * * * * * * * * * * * * * * //

dimensions      [0 3 -1 0 0 0 0];

internalField   nonuniform List<scalar> 
1890
(
-1.04207e-05
-2.47707e-07
-1.02843e-05
-1.36444e-07
-1.01993e-05
-8.49434e-08
-1.01424e-05
-5.69152e-08
-1.01027e-05
-3.97629e-08
-1.00742e-05
-2.84624e-08
-1.00535e-05
-2.07007e-08
-1.00382e-05
-1.52622e-08
-1.00268e-05
-1.14365e-08
-1.0018e-05
-8.77785e-09
-1.0011e-05
-6.99642e-09
-1.00051e-05
-5.90461e-09
-9.99973e-06
-5.38793e-09
-9.99434e-06
-5.38866e-09
-9.98845e-06
-5.89668e-09
-9.9815e-06
-6.94436e-09
-9.9729e-06
-8.60354e-09
-9.96191e-06
-1.0982e-08
-9.9477e-06
-1.42164e-08
-9.92924e-06
-1.84572e-08
-9.9054e-06
-2.38393e-08
-9.87497e-06
-3.04331e-08
-9.83679e-06
-3.81755e-08
-9.79e-06
-4.67924e-08
-9.73425e-06
-5.57478e-08
-9.66998e-06
-6.42676e-08
-9.59851e-06
-7.14694e-08
-9.52195e-06
-7.65671e-08
-9.44288e-06
-7.907e-08
-9.36398e-06
-7.88925e-08
-9.28766e-06
-7.63281e-08
-9.21574e-06
-7.19208e-08
-9.14942e-06
-6.63152e-08
-9.08927e-06
-6.01477e-08
-9.03529e-06
-5.39838e-08
-8.987e-06
-4.82881e-08
-8.94357e-06
-4.34293e-08
-8.90382e-06
-3.97524e-08
-8.86605e-06
-3.77668e-08
-8.82754e-06
-3.85129e-08
-8.78352e-06
-4.40144e-08
-8.7267e-06
-5.68191e-08
-8.64959e-06
-7.71173e-08
-8.54632e-06
-1.03265e-07
-8.41028e-06
-1.36044e-07
-8.25044e-06
-1.59839e-07
-8.10252e-06
-1.47914e-07
-7.92982e-06
-1.72708e-07
-7.75554e-06
-1.74272e-07
-7.61102e-06
-1.44526e-07
-7.51269e-06
-9.83254e-08
-7.4489e-06
-6.37892e-08
-7.40736e-06
-4.15376e-08
-7.37568e-06
-3.16817e-08
-7.34993e-06
-2.57525e-08
-7.32239e-06
-2.75382e-08
-7.28357e-06
-3.88167e-08
-7.20803e-06
-7.55453e-08
-7.13029e-06
-7.77425e-08
-7.11829e-06
-1.19971e-08
-7.14317e-06
2.48857e-08
-7.17798e-06
3.48004e-08
-7.21242e-06
3.44479e-08
-7.24229e-06
2.98629e-08
-7.27022e-06
2.79313e-08
-7.29736e-06
2.71401e-08
-7.32497e-06
2.76155e-08
-7.35267e-06
2.77009e-08
-7.38104e-06
2.8368e-08
-7.40999e-06
2.89509e-08
-7.43936e-06
2.93718e-08
-7.46834e-06
2.89784e-08
-7.49633e-06
2.79843e-08
-7.52072e-06
2.43949e-08
-7.5371e-06
1.63752e-08
-7.53543e-06
-1.66459e-09
-7.49076e-06
-4.4676e-08
-7.3375e-06
-1.53252e-07
-7.13182e-06
-2.05683e-07
-7.43481e-06
3.02991e-07
-7.83321e-06
3.98396e-07
-8.10746e-06
2.74252e-07
-8.23895e-06
1.31493e-07
-8.31699e-06
7.8035e-08
-8.37668e-06
5.96883e-08
-8.42157e-06
4.48903e-08
-8.46521e-06
4.36372e-08
-8.53723e-06
7.20212e-08
-8.6206e-06
8.33757e-08
-8.69434e-06
7.37337e-08
-8.74996e-06
5.56271e-08
-8.81788e-06
6.79157e-08
-8.92208e-06
1.04205e-07
-9.03164e-06
1.09559e-07
-9.1385e-06
1.06853e-07
-9.26563e-06
1.27129e-07
-9.43547e-06
1.69849e-07
-9.65026e-06
2.14785e-07
-9.83396e-06
1.83696e-07
1.66044e-07
-1.03095e-05
-3.17293e-07
-1.02328e-05
-2.13126e-07
-1.01713e-05
-1.46414e-07
-1.01253e-05
-1.02955e-07
-1.00914e-05
-7.3674e-08
-1.00664e-05
-5.3386e-08
-1.00481e-05
-3.90783e-08
-1.00344e-05
-2.89116e-08
-1.00241e-05
-2.1706e-08
-1.00162e-05
-1.66784e-08
-1.00099e-05
-1.33031e-08
-1.00046e-05
-1.1234e-08
-9.99973e-06
-1.02583e-08
-9.99485e-06
-1.02699e-08
-9.98949e-06
-1.12536e-08
-9.98316e-06
-1.32771e-08
-9.97528e-06
-1.64877e-08
-9.96515e-06
-2.11079e-08
-9.95194e-06
-2.74263e-08
-9.93462e-06
-3.5773e-08
-9.912e-06
-4.64667e-08
-9.88271e-06
-5.97176e-08
-9.84541e-06
-7.54763e-08
-9.79896e-06
-9.32463e-08
-9.74277e-06
-1.11931e-07
-9.67719e-06
-1.29853e-07
-9.60361e-06
-1.45043e-07
-9.52445e-06
-1.55729e-07
-9.4427e-06
-1.60821e-07
-9.36142e-06
-1.60172e-07
-9.28325e-06
-1.54499e-07
-9.21013e-06
-1.4504e-07
-9.14325e-06
-1.33192e-07
-9.08311e-06
-1.20292e-07
-9.02959e-06
-1.075e-07
-8.98214e-06
-9.5739e-08
-8.93989e-06
-8.56769e-08
-8.90183e-06
-7.78131e-08
-8.8668e-06
-7.28018e-08
-8.83304e-06
-7.22703e-08
-8.79633e-06
-8.07253e-08
-8.747e-06
-1.06145e-07
-8.67573e-06
-1.48385e-07
-8.57909e-06
-1.99909e-07
-8.42977e-06
-2.85361e-07
-8.14088e-06
-4.48729e-07
-7.80186e-06
-4.86933e-07
-7.61187e-06
-3.62697e-07
-7.58387e-06
-2.02277e-07
-7.62655e-06
-1.01848e-07
-7.66603e-06
-5.88394e-08
-7.69158e-06
-3.82429e-08
-7.70864e-06
-2.44726e-08
-7.73149e-06
-8.83695e-09
-7.76017e-06
2.93127e-09
-7.79722e-06
9.5144e-09
-7.84488e-06
8.84139e-09
-7.92208e-06
1.65296e-09
-8.00936e-06
9.53338e-09
-8.06292e-06
4.15658e-08
-8.10393e-06
6.58952e-08
-8.14522e-06
7.60926e-08
-8.18896e-06
7.8189e-08
-8.23579e-06
7.66887e-08
-8.28368e-06
7.58298e-08
-8.33238e-06
7.58352e-08
-8.3804e-06
7.56399e-08
-8.42903e-06
7.63314e-08
-8.47737e-06
7.67076e-08
-8.52522e-06
7.67986e-08
-8.57161e-06
7.57558e-08
-8.61579e-06
7.31611e-08
-8.65653e-06
6.87262e-08
-8.6938e-06
6.16631e-08
-8.72488e-06
4.74594e-08
-8.74637e-06
1.98205e-08
-8.75514e-06
-3.59081e-08
-8.75774e-06
-1.50644e-07
-8.62622e-06
-3.37211e-07
-8.42347e-06
1.00248e-07
-8.84425e-06
8.19171e-07
-9.12705e-06
5.57053e-07
-9.33025e-06
3.34689e-07
-9.40291e-06
1.50699e-07
-9.45526e-06
1.12039e-07
-9.53893e-06
1.28558e-07
-9.59637e-06
1.01082e-07
-9.61653e-06
9.21816e-08
-9.63599e-06
1.02831e-07
-9.68954e-06
1.27287e-07
-9.80209e-06
1.68176e-07
-9.90998e-06
1.75807e-07
-9.94556e-06
1.39777e-07
-9.96411e-06
1.28109e-07
-1.00109e-05
1.53654e-07
-1.00623e-05
1.78526e-07
-1.00648e-05
1.72355e-07
-1.00541e-05
2.04093e-07
-1.00338e-05
1.63345e-07
1.32272e-07
-1.02053e-05
-3.40831e-07
-1.01661e-05
-2.52352e-07
-1.01279e-05
-1.84634e-07
-1.0096e-05
-1.34815e-07
-1.00711e-05
-9.85925e-08
-1.00521e-05
-7.23293e-08
-1.00379e-05
-5.33147e-08
-1.00272e-05
-3.95999e-08
-1.00191e-05
-2.97975e-08
-1.00129e-05
-2.29265e-08
-1.00079e-05
-1.83037e-08
-1.00036e-05
-1.54699e-08
-9.99974e-06
-1.41416e-08
-9.99583e-06
-1.41792e-08
-9.99152e-06
-1.55706e-08
-9.98637e-06
-1.84229e-08
-9.9799e-06
-2.29622e-08
-9.97147e-06
-2.95355e-08
-9.96029e-06
-3.86079e-08
-9.94532e-06
-5.07419e-08
-9.92525e-06
-6.65371e-08
-9.89847e-06
-8.64941e-08
-9.86318e-06
-1.10766e-07
-9.81764e-06
-1.38785e-07
-9.76069e-06
-1.68878e-07
-9.69238e-06
-1.9817e-07
-9.6143e-06
-2.2312e-07
-9.52954e-06
-2.40485e-07
-9.44205e-06
-2.48312e-07
-9.35575e-06
-2.46474e-07
-9.27379e-06
-2.36457e-07
-9.19828e-06
-2.20547e-07
-9.13035e-06
-2.01122e-07
-9.07032e-06
-1.80327e-07
-9.01783e-06
-1.59984e-07
-8.97208e-06
-1.41491e-07
-8.93203e-06
-1.25726e-07
-8.89682e-06
-1.13021e-07
-8.86627e-06
-1.03357e-07
-8.84149e-06
-9.70413e-08
-8.82175e-06
-1.00472e-07
-8.78923e-06
-1.38667e-07
-8.71911e-06
-2.185e-07
-8.48048e-06
-4.38536e-07
-8.2307e-06
-5.35149e-07
-8.2411e-06
-4.38328e-07
-8.45859e-06
-2.69436e-07
-8.64437e-06
-1.76923e-07
-8.72867e-06
-1.1797e-07
-8.74616e-06
-8.43584e-08
-8.75561e-06
-4.93902e-08
-8.76271e-06
-3.11414e-08
-8.77697e-06
-1.02151e-08
-8.79382e-06
8.01183e-09
-8.81386e-06
2.29748e-08
-8.83843e-06
3.40852e-08
-8.87104e-06
4.14535e-08
-8.91607e-06
4.66768e-08
-8.96461e-06
5.80797e-08
-9.00075e-06
7.76995e-08
-9.03084e-06
9.59841e-08
-9.06185e-06
1.07108e-07
-9.09542e-06
1.11759e-07
-9.1318e-06
1.13067e-07
-9.16901e-06
1.13042e-07
-9.20599e-06
1.12816e-07
-9.24329e-06
1.12936e-07
-9.27937e-06
1.12409e-07
-9.31423e-06
1.11574e-07
-9.34705e-06
1.09613e-07
-9.3777e-06
1.06412e-07
-9.40688e-06
1.02342e-07
-9.43418e-06
9.60259e-08
-9.45809e-06
8.55676e-08
-9.4813e-06
7.06658e-08
-9.50841e-06
4.69367e-08
-9.55818e-06
1.38589e-08
-9.68491e-06
-2.39149e-08
-9.99486e-06
-2.7261e-08
-1.00393e-05
1.44682e-07
-9.68079e-06
4.6067e-07
-9.6004e-06
4.76663e-07
-9.56732e-06
3.01608e-07
-9.65858e-06
2.41962e-07
-9.74131e-06
1.94759e-07
-9.7681e-06
1.55353e-07
-9.82357e-06
1.56556e-07
-9.88244e-06
1.51045e-07
-9.93217e-06
1.52559e-07
-9.97873e-06
1.73853e-07
-9.97112e-06
1.6056e-07
-9.949e-06
1.53689e-07
-9.92381e-06
1.14583e-07
-9.90181e-06
1.06113e-07
-9.86807e-06
1.19915e-07
-9.8206e-06
1.3105e-07
-9.84244e-06
1.942e-07
-9.81603e-06
1.77675e-07
-9.87801e-06
2.25332e-07
2.54259e-07
-1.01168e-05
-3.49708e-07
-1.00984e-05
-2.70817e-07
-1.0078e-05
-2.04954e-07
-1.00598e-05
-1.53078e-07
-1.00448e-05
-1.13552e-07
-1.00331e-05
-8.40241e-08
-1.00242e-05
-6.22513e-08
-1.00174e-05
-4.63758e-08
-1.00122e-05
-3.49577e-08
-1.00082e-05
-2.69265e-08
-1.0005e-05
-2.15152e-08
-1.00023e-05
-1.82006e-08
-9.99978e-06
-1.66587e-08
-9.99723e-06
-1.67348e-08
-9.99437e-06
-1.84267e-08
-9.99091e-06
-2.18816e-08
-9.98647e-06
-2.74027e-08
-9.98054e-06
-3.54642e-08
-9.97242e-06
-4.67278e-08
-9.96111e-06
-6.20497e-08
-9.9452e-06
-8.24455e-08
-9.92274e-06
-1.08956e-07
-9.8912e-06
-1.42308e-07
-9.84773e-06
-1.82251e-07
-9.78999e-06
-2.26625e-07
-9.71733e-06
-2.7083e-07
-9.63166e-06
-3.08782e-07
-9.53737e-06
-3.34778e-07
-9.44021e-06
-3.45467e-07
-9.34573e-06
-3.40958e-07
-9.25788e-06
-3.24307e-07
-9.17886e-06
-2.9957e-07
-9.10956e-06
-2.70421e-07
-9.04997e-06
-2.39911e-07
-8.99934e-06
-2.10617e-07
-8.95631e-06
-1.84517e-07
-8.91932e-06
-1.62715e-07
-8.88716e-06
-1.45189e-07
-8.85995e-06
-1.30564e-07
-8.84492e-06
-1.12066e-07
-8.85857e-06
-8.68212e-08
-8.79588e-06
-2.01362e-07
-8.57795e-06
-4.36429e-07
-8.65291e-06
-3.63574e-07
-8.92334e-06
-2.64723e-07
-9.19674e-06
-1.64921e-07
-9.29782e-06
-1.68361e-07
-9.34714e-06
-1.27605e-07
-9.37079e-06
-9.43127e-08
-9.38651e-06
-6.86452e-08
-9.37845e-06
-5.74451e-08
-9.38145e-06
-2.81429e-08
-9.38573e-06
-5.92927e-09
-9.39449e-06
1.67681e-08
-9.405e-06
3.34819e-08
-9.41861e-06
4.77024e-08
-9.43738e-06
6.02231e-08
-9.46251e-06
7.18021e-08
-9.48939e-06
8.49608e-08
-9.51206e-06
1.00373e-07
-9.53066e-06
1.14585e-07
-9.54814e-06
1.24584e-07
-9.56705e-06
1.30667e-07
-9.58732e-06
1.33343e-07
-9.60835e-06
1.34071e-07
-9.62964e-06
1.34107e-07
-9.64998e-06
1.33274e-07
-9.66957e-06
1.32001e-07
-9.68755e-06
1.29553e-07
-9.7046e-06
1.26662e-07
-9.72114e-06
1.2295e-07
-9.73632e-06
1.17529e-07
-9.75039e-06
1.10088e-07
-9.76504e-06
1.0022e-07
-9.78152e-06
8.71462e-08
-9.80704e-06
7.24614e-08
-9.8533e-06
6.01148e-08
-9.9476e-06
7.03855e-08
-1.01419e-05
1.67052e-07
-1.03282e-05
3.30971e-07
-1.00403e-05
1.72803e-07
-9.71812e-06
1.54446e-07
-9.63983e-06
2.23317e-07
-9.65367e-06
2.55802e-07
-9.69679e-06
2.37881e-07
-9.76568e-06
2.24242e-07
-9.82214e-06
2.13009e-07
-9.86522e-06
1.94128e-07
-9.91468e-06
2.02022e-07
-9.93458e-06
1.93749e-07
-9.91639e-06
1.42368e-07
-9.87854e-06
1.15841e-07
-9.90313e-06
1.39177e-07
-9.94015e-06
1.43126e-07
-9.94194e-06
1.21704e-07
-9.963e-06
1.52112e-07
-9.8988e-06
1.30001e-07
-9.87535e-06
1.54224e-07
-9.88003e-06
2.3001e-07
3.74231e-07
-1.00379e-05
-3.52094e-07
-1.00325e-05
-2.76254e-07
-1.00262e-05
-2.11288e-07
-1.00202e-05
-1.5899e-07
-1.00153e-05
-1.18515e-07
-1.00113e-05
-8.79637e-08
-1.00083e-05
-6.52907e-08
-1.0006e-05
-4.86943e-08
-1.00042e-05
-3.67309e-08
-1.00028e-05
-2.83067e-08
-1.00017e-05
-2.26299e-08
-1.00008e-05
-1.91584e-08
-9.99986e-06
-1.7558e-08
-9.99892e-06
-1.76745e-08
-9.99782e-06
-1.95198e-08
-9.99643e-06
-2.32741e-08
-9.99453e-06
-2.9303e-08
-9.9918e-06
-3.81906e-08
-9.98774e-06
-5.07896e-08
-9.98151e-06
-6.82835e-08
-9.97171e-06
-9.22391e-08
-9.95609e-06
-1.24577e-07
-9.93114e-06
-1.67259e-07
-9.89211e-06
-2.21285e-07
-9.83419e-06
-2.84541e-07
-9.75528e-06
-3.49741e-07
-9.65766e-06
-4.06402e-07
-9.54806e-06
-4.44378e-07
-9.4357e-06
-4.57821e-07
-9.32908e-06
-4.47583e-07
-9.23314e-06
-4.20242e-07
-9.14971e-06
-3.83005e-07
-9.07905e-06
-3.41081e-07
-9.02068e-06
-2.98279e-07
-8.97324e-06
-2.58056e-07
-8.93451e-06
-2.23243e-07
-8.9018e-06
-1.95429e-07
-8.87253e-06
-1.74456e-07
-8.8413e-06
-1.61799e-07
-8.78913e-06
-1.64235e-07
-8.69031e-06
-1.85637e-07
-8.80996e-06
-8.17157e-08
-9.36621e-06
1.19822e-07
-9.78958e-06
5.97964e-08
-9.91875e-06
-1.35555e-07
-9.90725e-06
-1.7642e-07
-9.83409e-06
-2.41519e-07
-9.78756e-06
-1.74134e-07
-9.72568e-06
-1.56196e-07
-9.6702e-06
-1.2412e-07
-9.64523e-06
-8.24175e-08
-9.62786e-06
-4.55148e-08
-9.62481e-06
-8.97017e-09
-9.62588e-06
1.78362e-08
-9.6318e-06
3.94043e-08
-9.64225e-06
5.81481e-08
-9.65501e-06
7.29878e-08
-9.67085e-06
8.76405e-08
-9.68733e-06
1.01442e-07
-9.70154e-06
1.14575e-07
-9.71296e-06
1.26005e-07
-9.72316e-06
1.34788e-07
-9.73291e-06
1.40419e-07
-9.74311e-06
1.43538e-07
-9.75391e-06
1.44875e-07
-9.76458e-06
1.44776e-07
-9.77521e-06
1.43905e-07
-9.78553e-06
1.42319e-07
-9.79612e-06
1.40141e-07
-9.80661e-06
1.37157e-07
-9.817e-06
1.33337e-07
-9.8278e-06
1.28326e-07
-9.83964e-06
1.21933e-07
-9.85357e-06
1.14142e-07
-9.87132e-06
1.04896e-07
-9.89447e-06
9.56185e-08
-9.92188e-06
8.75246e-08
-9.93014e-06
7.86425e-08
-9.79989e-06
3.67999e-08
-9.50449e-06
3.55676e-08
-9.75248e-06
4.20799e-07
-1.00722e-05
4.74142e-07
-1.01506e-05
3.01779e-07
-1.00854e-05
1.9054e-07
-1.00153e-05
1.6777e-07
-9.96576e-06
1.74738e-07
-9.90954e-06
1.56791e-07
-9.88942e-06
1.74006e-07
-9.84163e-06
1.54229e-07
-9.80637e-06
1.58491e-07
-9.84436e-06
1.80357e-07
-9.91316e-06
1.84638e-07
-9.9565e-06
1.82515e-07
-9.96375e-06
1.50384e-07
-9.97674e-06
1.34693e-07
-9.9553e-06
1.30673e-07
-1.00086e-05
1.83313e-07
-1.00708e-05
2.16396e-07
-1.00927e-05
2.51892e-07
2.81559e-07
-9.96209e-06
-3.49708e-07
-9.96752e-06
-2.70817e-07
-9.97386e-06
-2.04954e-07
-9.97977e-06
-1.53078e-07
-9.98473e-06
-1.13553e-07
-9.98867e-06
-8.40253e-08
-9.9917e-06
-6.22534e-08
-9.99402e-06
-4.63797e-08
-9.99579e-06
-3.49648e-08
-9.99715e-06
-2.69397e-08
-9.99824e-06
-2.15394e-08
-9.99916e-06
-1.8245e-08
-9.99997e-06
-1.67405e-08
-1.00008e-05
-1.68853e-08
-1.00016e-05
-1.87037e-08
-1.00025e-05
-2.23921e-08
-1.00034e-05
-2.83446e-08
-1.00044e-05
-3.72055e-08
-1.00052e-05
-4.99564e-08
-1.00055e-05
-6.80558e-08
-1.00041e-05
-9.3651e-08
-9.99878e-06
-1.29851e-07
-9.98517e-06
-1.80868e-07
-9.95536e-06
-2.51089e-07
-9.89939e-06
-3.40513e-07
-9.81194e-06
-4.37191e-07
-9.69563e-06
-5.22708e-07
-9.5615e-06
-5.78511e-07
-9.42547e-06
-5.93855e-07
-9.30174e-06
-5.71312e-07
-9.19591e-06
-5.26073e-07
-9.10778e-06
-4.71128e-07
-9.03625e-06
-4.12617e-07
-8.98046e-06
-3.5407e-07
-8.93843e-06
-3.00084e-07
-8.9067e-06
-2.54973e-07
-8.88083e-06
-2.21299e-07
-8.85987e-06
-1.95408e-07
-8.84389e-06
-1.77782e-07
-8.84177e-06
-1.66355e-07
-8.8732e-06
-1.54203e-07
-8.83538e-06
-1.19544e-07
-8.66198e-06
-5.35769e-08
-8.69009e-06
8.7915e-08
-8.97871e-06
1.53065e-07
-9.14523e-06
-9.90418e-09
-9.28141e-06
-1.0534e-07
-9.35586e-06
-9.96848e-08
-9.42482e-06
-8.72329e-08
-9.50226e-06
-4.66772e-08
-9.5713e-06
-1.33821e-08
-9.6206e-06
3.78932e-09
-9.64108e-06
1.15104e-08
-9.661e-06
3.77547e-08
-9.68217e-06
6.05705e-08
-9.69806e-06
7.40445e-08
-9.71625e-06
9.11751e-08
-9.7346e-06
1.05988e-07
-9.75076e-06
1.17606e-07
-9.76432e-06
1.2813e-07
-9.77552e-06
1.37206e-07
-9.78494e-06
1.4421e-07
-9.79331e-06
1.4879e-07
-9.80103e-06
1.51255e-07
-9.80855e-06
1.52394e-07
-9.8161e-06
1.52332e-07
-9.82395e-06
1.51756e-07
-9.8321e-06
1.50464e-07
-9.84093e-06
1.48976e-07
-9.8505e-06
1.46723e-07
-9.86084e-06
1.43676e-07
-9.87245e-06
1.39935e-07
-9.88574e-06
1.35222e-07
-9.90135e-06
1.29751e-07
-9.92026e-06
1.23815e-07
-9.9439e-06
1.19257e-07
-9.97409e-06
1.17711e-07
-1.00211e-05
1.25619e-07
-1.01319e-05
1.47662e-07
-1.02787e-05
1.82349e-07
-1.018e-05
3.22075e-07
-9.93278e-06
2.26934e-07
-9.90324e-06
2.72244e-07
-9.92712e-06
2.14413e-07
-9.93092e-06
1.71574e-07
-9.90504e-06
1.48856e-07
-9.91037e-06
1.62123e-07
-9.91649e-06
1.80127e-07
-9.94165e-06
1.79382e-07
-9.95547e-06
1.72314e-07
-9.96924e-06
1.94122e-07
-9.97032e-06
1.85725e-07
-9.94735e-06
1.59538e-07
-9.96446e-06
1.67501e-07
-1.00089e-05
1.7913e-07
-1.00876e-05
2.09379e-07
-1.0127e-05
2.22739e-07
-1.01513e-05
2.40626e-07
-1.01115e-05
2.12134e-07
1.70051e-07
-9.88319e-06
-3.40831e-07
-9.90166e-06
-2.52352e-07
-9.92198e-06
-1.84634e-07
-9.94024e-06
-1.34815e-07
-9.9552e-06
-9.85936e-08
-9.9669e-06
-7.23312e-08
-9.97583e-06
-5.33181e-08
-9.9826e-06
-3.96062e-08
-9.98776e-06
-2.98091e-08
-9.99175e-06
-2.29478e-08
-9.99495e-06
-1.83428e-08
-9.99765e-06
-1.55419e-08
-1.00001e-05
-1.42738e-08
-1.00026e-05
-1.44224e-08
-1.00053e-05
-1.60179e-08
-1.00084e-05
-1.92459e-08
-1.00123e-05
-2.44779e-08
-1.00172e-05
-3.23306e-08
-1.00233e-05
-4.37747e-08
-1.00311e-05
-6.03322e-08
-1.00403e-05
-8.44576e-08
-1.00498e-05
-1.20311e-07
-1.00554e-05
-1.75271e-07
-1.00448e-05
-2.61691e-07
-9.99607e-06
-3.89231e-07
-9.89746e-06
-5.35804e-07
-9.75143e-06
-6.68732e-07
-9.57682e-06
-7.53123e-07
-9.40283e-06
-7.67842e-07
-9.25633e-06
-7.17815e-07
-9.14049e-06
-6.41905e-07
-9.04863e-06
-5.62992e-07
-8.97729e-06
-4.83961e-07
-8.92623e-06
-4.0513e-07
-8.89312e-06
-3.33193e-07
-8.87276e-06
-2.75331e-07
-8.85474e-06
-2.39313e-07
-8.84203e-06
-2.08121e-07
-8.83221e-06
-1.87602e-07
-8.82948e-06
-1.69087e-07
-8.84114e-06
-1.42541e-07
-8.8718e-06
-8.88831e-08
-8.86985e-06
-5.553e-08
-8.66471e-06
-1.17223e-07
-8.38063e-06
-1.3101e-07
-8.44099e-06
5.04499e-08
-8.70428e-06
1.57959e-07
-8.95875e-06
1.54785e-07
-9.17213e-06
1.26145e-07
-9.33098e-06
1.12177e-07
-9.42934e-06
8.4977e-08
-9.51056e-06
8.50107e-08
-9.58607e-06
8.70138e-08
-9.63431e-06
8.59996e-08
-9.66775e-06
9.40119e-08
-9.70066e-06
1.06949e-07
-9.72828e-06
1.18797e-07
-9.75104e-06
1.28745e-07
-9.77119e-06
1.37755e-07
-9.78802e-06
1.44967e-07
-9.80156e-06
1.50743e-07
-9.81256e-06
1.55215e-07
-9.82192e-06
1.58146e-07
-9.83051e-06
1.59841e-07
-9.83839e-06
1.60277e-07
-9.84617e-06
1.60114e-07
-9.85369e-06
1.59272e-07
-9.86125e-06
1.58024e-07
-9.86862e-06
1.56353e-07
-9.87597e-06
1.54074e-07
-9.88352e-06
1.5122e-07
-9.89121e-06
1.4763e-07
-9.89955e-06
1.43555e-07
-9.90863e-06
1.38836e-07
-9.91855e-06
1.33737e-07
-9.92822e-06
1.28925e-07
-9.93935e-06
1.28839e-07
-9.95896e-06
1.45226e-07
-1.0046e-05
2.34674e-07
-1.02108e-05
3.47179e-07
-9.89476e-06
6.03012e-09
-9.72343e-06
5.56116e-08
-9.58288e-06
1.31692e-07
-9.59705e-06
2.28576e-07
-9.66394e-06
2.38473e-07
-9.72657e-06
2.11486e-07
-9.78229e-06
2.17833e-07
-9.81448e-06
2.12326e-07
-9.85115e-06
2.1605e-07
-9.8872e-06
2.08364e-07
-9.88416e-06
1.9108e-07
-9.86613e-06
1.67692e-07
-9.88439e-06
1.77794e-07
-9.91569e-06
1.98804e-07
-9.91818e-06
1.81624e-07
-9.89938e-06
1.90577e-07
-9.88033e-06
2.03687e-07
-9.8777e-06
2.37997e-07
-9.91031e-06
2.44737e-07
2.59744e-07
-9.79472e-06
-3.17293e-07
-9.83394e-06
-2.13126e-07
-9.87216e-06
-1.46415e-07
-9.90402e-06
-1.02955e-07
-9.92894e-06
-7.3675e-08
-9.94788e-06
-5.33879e-08
-9.96212e-06
-3.90817e-08
-9.97281e-06
-2.89179e-08
-9.9809e-06
-2.17175e-08
-9.98715e-06
-1.66996e-08
-9.99215e-06
-1.33422e-08
-9.99638e-06
-1.13058e-08
-1.00003e-05
-1.03904e-08
-1.00042e-05
-1.05126e-08
-1.00085e-05
-1.16994e-08
-1.00136e-05
-1.40958e-08
-1.00201e-05
-1.79904e-08
-1.00286e-05
-2.38642e-08
-1.00399e-05
-3.24794e-08
-1.00552e-05
-4.5041e-08
-1.00761e-05
-6.35364e-08
-1.01048e-05
-9.16622e-08
-1.01418e-05
-1.38215e-07
-1.01723e-05
-2.31173e-07
-1.01426e-05
-4.18957e-07
-1.00273e-05
-6.5109e-07
-9.8063e-06
-8.89748e-07
-9.53591e-06
-1.02351e-06
-9.26827e-06
-1.03548e-06
-9.06278e-06
-9.23303e-07
-8.87658e-06
-8.28105e-07
-8.7658e-06
-6.73773e-07
-8.71484e-06
-5.34923e-07
-8.68702e-06
-4.32954e-07
-8.67513e-06
-3.45083e-07
-8.66413e-06
-2.86324e-07
-8.66246e-06
-2.40989e-07
-8.66119e-06
-2.09384e-07
-8.66189e-06
-1.86901e-07
-8.67413e-06
-1.56846e-07
-8.66405e-06
-1.5263e-07
-8.60544e-06
-1.47491e-07
-8.54494e-06
-1.16029e-07
-8.67665e-06
1.4488e-08
-8.99362e-06
1.85959e-07
-9.20919e-06
2.66023e-07
-9.36438e-06
3.13148e-07
-9.47155e-06
2.61952e-07
-9.55719e-06
2.11786e-07
-9.60946e-06
1.64451e-07
-9.66618e-06
1.41695e-07
-9.69498e-06
1.13809e-07
-9.71541e-06
1.07448e-07
-9.74319e-06
1.13778e-07
-9.76856e-06
1.19382e-07
-9.79186e-06
1.30248e-07
-9.81161e-06
1.38548e-07
-9.82853e-06
1.45666e-07
-9.84312e-06
1.52344e-07
-9.85621e-06
1.58058e-07
-9.86735e-06
1.61888e-07
-9.87684e-06
1.64702e-07
-9.88513e-06
1.66436e-07
-9.89261e-06
1.67326e-07
-9.89967e-06
1.67335e-07
-9.90646e-06
1.66901e-07
-9.9132e-06
1.66013e-07
-9.92001e-06
1.64833e-07
-9.92689e-06
1.63237e-07
-9.93411e-06
1.61287e-07
-9.94208e-06
1.59198e-07
-9.95104e-06
1.5658e-07
-9.96094e-06
1.53455e-07
-9.97157e-06
1.49473e-07
-9.98261e-06
1.44771e-07
-9.99168e-06
1.38001e-07
-9.98852e-06
1.25679e-07
-9.93801e-06
9.47134e-08
-9.69604e-06
-7.29161e-09
-9.25382e-06
-9.50427e-08
-9.65058e-06
4.0279e-07
-1.00654e-05
4.70424e-07
-1.02306e-05
2.96896e-07
-1.02313e-05
2.29317e-07
-1.01791e-05
1.8626e-07
-1.01797e-05
2.12063e-07
-1.01582e-05
1.96307e-07
-1.01334e-05
1.87546e-07
-1.01074e-05
1.90013e-07
-1.00588e-05
1.59763e-07
-1.00532e-05
1.85541e-07
-1.00925e-05
2.06983e-07
-1.01396e-05
2.24851e-07
-1.01279e-05
1.87123e-07
-1.01547e-05
2.08474e-07
-1.01563e-05
1.92108e-07
-1.01275e-05
1.74935e-07
-1.00997e-05
2.10136e-07
-1.00477e-05
1.92779e-07
2.12041e-07
-9.69055e-06
-2.47707e-07
-9.76723e-06
-1.36444e-07
-9.8287e-06
-8.49436e-08
-9.87474e-06
-5.69155e-08
-9.90865e-06
-3.97635e-08
-9.93358e-06
-2.84635e-08
-9.95196e-06
-2.07028e-08
-9.96561e-06
-1.52661e-08
-9.97588e-06
-1.14436e-08
-9.98379e-06
-8.79092e-09
-9.99011e-06
-7.02049e-09
-9.99547e-06
-5.94892e-09
-1.00004e-05
-5.46939e-09
-1.00054e-05
-5.53832e-09
-1.00109e-05
-6.17133e-09
-1.00175e-05
-7.44766e-09
-1.0026e-05
-9.52358e-09
-1.00372e-05
-1.26564e-08
-1.00525e-05
-1.72379e-08
-1.00737e-05
-2.38159e-08
-1.01042e-05
-3.29847e-08
-1.01513e-05
-4.45869e-08
-1.02348e-05
-5.47565e-08
-1.03568e-05
-1.09141e-07
-1.02833e-05
-4.92462e-07
-9.89976e-06
-1.03462e-06
-9.5707e-06
-1.21881e-06
-9.39802e-06
-1.19618e-06
-9.35595e-06
-1.07756e-06
-9.39982e-06
-8.7943e-07
-9.44438e-06
-7.83544e-07
-9.45035e-06
-6.67803e-07
-9.42101e-06
-5.64263e-07
-9.48683e-06
-3.67135e-07
-9.50229e-06
-3.29625e-07
-9.61026e-06
-1.78353e-07
-9.7673e-06
-8.39473e-08
-9.94475e-06
-3.1938e-08
-1.01208e-05
-1.0827e-08
-1.02666e-05
-1.1016e-08
-1.04228e-05
3.47374e-09
-1.05808e-05
1.05536e-08
-1.07345e-05
3.76391e-08
-1.08301e-05
1.10141e-07
-1.08387e-05
1.94519e-07
-1.08166e-05
2.43987e-07
-1.07181e-05
2.14633e-07
-1.06474e-05
1.91212e-07
-1.06089e-05
1.73334e-07
-1.05561e-05
1.11635e-07
-1.05106e-05
9.61619e-08
-1.04768e-05
7.99924e-08
-1.0466e-05
9.66577e-08
-1.04576e-05
1.05422e-07
-1.04503e-05
1.12052e-07
-1.0445e-05
1.24971e-07
-1.04453e-05
1.38823e-07
-1.04435e-05
1.43873e-07
-1.04398e-05
1.48629e-07
-1.04338e-05
1.52043e-07
-1.04257e-05
1.53785e-07
-1.04164e-05
1.55393e-07
-1.04056e-05
1.5571e-07
-1.03942e-05
1.55911e-07
-1.03822e-05
1.55282e-07
-1.037e-05
1.54745e-07
-1.03583e-05
1.54303e-07
-1.03468e-05
1.53321e-07
-1.03358e-05
1.52307e-07
-1.03255e-05
1.50961e-07
-1.03162e-05
1.49911e-07
-1.0308e-05
1.48321e-07
-1.03013e-05
1.46731e-07
-1.02959e-05
1.44125e-07
-1.02923e-05
1.41142e-07
-1.029e-05
1.35684e-07
-1.02893e-05
1.2498e-07
-1.02947e-05
1.00119e-07
-1.0339e-05
3.7003e-08
-1.03678e-05
-6.61738e-08
-1.01817e-05
2.16705e-07
-1.01546e-05
4.43278e-07
-1.01668e-05
3.09132e-07
-1.01252e-05
1.877e-07
-1.01214e-05
1.82484e-07
-1.00807e-05
1.71343e-07
-1.00413e-05
1.56879e-07
-1.00155e-05
1.61762e-07
-9.95086e-06
1.25361e-07
-9.93688e-06
1.45784e-07
-9.90681e-06
1.55468e-07
-9.8967e-06
1.96872e-07
-9.85211e-06
1.80262e-07
-9.84966e-06
1.84668e-07
-9.8575e-06
2.16317e-07
-9.85578e-06
1.90385e-07
-9.86699e-06
1.8615e-07
-9.87958e-06
2.22727e-07
-9.94909e-06
2.62283e-07
2.62952e-07
-9.57929e-06
-9.71573e-06
-9.80067e-06
-9.85759e-06
-9.89735e-06
-9.92582e-06
-9.94652e-06
-9.96178e-06
-9.97323e-06
-9.98202e-06
-9.98904e-06
-9.99499e-06
-1.00005e-05
-1.0006e-05
-1.00122e-05
-1.00196e-05
-1.00291e-05
-1.00418e-05
-1.0059e-05
-1.00828e-05
-1.01158e-05
-1.01604e-05
-1.02152e-05
-1.03243e-05
-1.08168e-05
-1.18514e-05
-1.30702e-05
-1.42664e-05
-1.53439e-05
-1.62234e-05
-1.70069e-05
-1.76747e-05
-1.8239e-05
-1.86061e-05
-1.89357e-05
-1.91141e-05
-1.9198e-05
-1.923e-05
-1.92408e-05
-1.92518e-05
-1.92484e-05
-1.92378e-05
-1.92002e-05
-1.909e-05
-1.88955e-05
-1.86515e-05
-1.84369e-05
-1.82457e-05
-1.80723e-05
-1.79607e-05
-1.78645e-05
-1.77845e-05
-1.76879e-05
-1.75825e-05
-1.74704e-05
-1.73454e-05
-1.72066e-05
-1.70627e-05
-1.69141e-05
-1.67621e-05
-1.66083e-05
-1.64529e-05
-1.62972e-05
-1.61413e-05
-1.5986e-05
-1.58312e-05
-1.56769e-05
-1.55236e-05
-1.53713e-05
-1.52204e-05
-1.50704e-05
-1.49221e-05
-1.47754e-05
-1.46313e-05
-1.44901e-05
-1.43544e-05
-1.42295e-05
-1.41293e-05
-1.40923e-05
-1.41585e-05
-1.39418e-05
-1.34985e-05
-1.31894e-05
-1.30017e-05
-1.28192e-05
-1.26479e-05
-1.2491e-05
-1.23292e-05
-1.22039e-05
-1.20581e-05
-1.19026e-05
-1.17057e-05
-1.15255e-05
-1.13408e-05
-1.11245e-05
-1.09341e-05
-1.0748e-05
-1.05252e-05
-1.0263e-05
)
;

boundaryField
{
    inlet
    {
        type            calculated;
        value           nonuniform List<scalar> 10(-1e-05 -1e-05 -1e-05 -1e-05 -1e-05 -1e-05 -1e-05 -1e-05 -1e-05 -1e-05);
    }
    outlet
    {
        type            calculated;
        value           nonuniform List<scalar> 10(1.06684e-05 1.0379e-05 1.02288e-05 1.01257e-05 1.00403e-05 9.9597e-06 9.87432e-06 9.77118e-06 9.62096e-06 9.33158e-06);
    }
    walls
    {
        type            calculated;
        value           uniform 0;
    }
}


// ************************************************************************* //
