/*--------------------------------*- C++ -*----------------------------------*\
| =========                 |                                                 |
| \\      /  F ield         | foam-extend: Open Source CFD                    |
|  \\    /   O peration     | Version:     5.0                                |
|   \\  /    A nd           | Web:         http://www.foam-extend.org         |
|    \\/     M anipulation  |                                                 |
\*---------------------------------------------------------------------------*/
FoamFile
{
    version     2.0;
    format      ascii;
    class       surfaceScalarField;
    location    "4000";
    object      phi.gas;
}
// * * * * * * * * * * * * * * * * * * * * * * * * * * * * * * * * * * * * * //

dimensions      [0 3 -1 0 0 0 0];

internalField   nonuniform List<scalar> 
1890
(
0
0
0
0
0
0
0
0
0
0
0
0
0
0
0
0
0
0
0
0
0
0
0
0
0
0
0
0
0
0
0
0
0
0
0
0
0
0
0
0
0
0
0
0
0
0
0
0
0
0
0
0
0
0
0
0
0
0
0
0
0
0
0
0
0
0
0
0
0
0
0
0
0
0
0
0
0
0
0
-2.10566e-308
1.44268e-170
-2.90357e-148
3.18557e-81
-1.27166e-74
5.65787e-42
-1.5891e-34
6.75312e-26
-4.32906e-17
5.37088e-15
-6.68457e-13
-2.54655e-10
-2.62787e-10
-4.22884e-09
-8.21291e-09
-1.78549e-08
-4.1479e-08
-6.89755e-08
-8.15643e-08
-8.80709e-08
-8.63067e-08
-1.48591e-07
-9.6471e-08
-1.73822e-07
-9.44435e-08
-2.42949e-07
-1.43806e-07
-4.4771e-07
-9.1866e-08
-3.58966e-07
-1.02215e-07
-8.12446e-07
-9.96257e-08
-1.29387e-06
-1.16573e-07
-1.92906e-05
-1.30834e-07
-5.73166e-05
-4.99371e-08
-7.07505e-05
4.60753e-07
-6.9115e-05
1.40347e-06
-5.80239e-05
2.09807e-06
-5.9002e-05
1.99918e-06
-6.92622e-05
2.16699e-06
-6.36084e-05
2.11496e-06
-6.49343e-05
2.35754e-06
-6.944e-05
2.06696e-06
-7.0805e-05
2.46544e-06
-7.81056e-05
2.5934e-06
-8.186e-05
2.64223e-06
-7.67214e-05
2.48912e-06
-8.03811e-05
2.26511e-06
-8.63935e-05
2.32002e-06
-8.10246e-05
2.47606e-06
-8.23613e-05
2.69823e-06
-8.58008e-05
2.75915e-06
-8.89215e-05
2.42565e-06
-9.45366e-05
1.10221e-06
-9.04213e-05
7.29576e-07
-8.93615e-05
4.78585e-06
-0.00010308
7.42557e-06
-0.000106077
5.62453e-06
-0.00011617
3.50689e-06
-0.000123543
4.30547e-06
-0.00010792
4.10099e-06
-0.00011188
2.9251e-06
-0.000106027
3.8877e-06
-9.5212e-05
3.82721e-06
-9.79919e-05
4.5021e-06
-0.000115088
3.72979e-06
-0.000125127
4.16144e-06
-0.00010468
3.98062e-06
-0.000108628
5.08763e-06
-0.000124857
6.24477e-06
-0.000118735
5.97701e-06
-0.000108033
5.65778e-06
-0.00010362
6.72822e-06
-0.000121742
7.49858e-06
-0.000139388
9.27872e-06
8.06609e-06
0
0
0
0
0
0
0
0
0
0
0
0
0
0
0
0
0
0
0
0
0
0
0
0
0
0
0
0
0
0
0
0
0
0
0
0
0
0
0
0
0
0
0
0
0
0
0
0
0
0
0
0
0
0
0
0
0
0
0
0
0
0
0
0
0
0
0
0
0
0
0
0
0
0
0
0
1.99384e-214
-6.25178e-212
2.50484e-104
-5.90015e-95
1.13924e-53
-6.45153e-45
1.0571e-25
-6.18773e-22
-5.56925e-14
-1.1292e-12
-1.22457e-09
-4.01382e-10
-4.51217e-07
-1.15222e-08
-1.31451e-05
-1.36354e-06
-5.62321e-05
-3.20219e-06
-8.77172e-05
-1.06781e-06
-8.57819e-05
3.14978e-07
-8.25425e-05
1.20125e-06
-7.8287e-05
1.87724e-06
-9.06787e-05
2.20573e-06
-8.62498e-05
2.5938e-06
-7.46369e-05
2.1823e-06
-7.74709e-05
2.29326e-06
-8.26476e-05
2.40694e-06
-9.52947e-05
3.09724e-06
-8.77311e-05
3.34466e-06
-7.83865e-05
3.00794e-06
-8.72601e-05
2.95785e-06
-0.000108397
3.9701e-06
-0.000119628
4.78431e-06
-0.000110954
4.29073e-06
-0.000101003
4.23081e-06
-0.000113636
3.53595e-06
-0.000108689
3.96504e-06
-0.000107254
3.81243e-06
-0.000128048
4.42485e-06
-0.000125636
4.48322e-06
-0.000116612
4.02074e-06
-0.000106304
3.58896e-06
-9.7743e-05
3.98594e-06
-0.000100886
4.0003e-06
-0.000120941
3.50703e-06
-0.00014081
3.90461e-06
-0.000150954
3.55665e-06
-0.00012965
2.95779e-06
-0.000122609
1.59326e-06
-0.000112593
-1.10494e-06
-0.000117645
3.9634e-06
-0.000158101
1.36911e-05
-0.000131274
1.02689e-05
-0.000139265
7.63768e-06
-0.000171036
5.44475e-06
-0.000135777
5.46561e-06
-0.000126482
5.05435e-06
-0.000145533
4.98165e-06
-0.00015711
4.82896e-06
-0.000139154
5.75103e-06
-0.000117054
5.00438e-06
-0.000111694
6.76947e-06
-0.000127634
6.41369e-06
-0.000161071
6.82956e-06
-0.000153969
7.38105e-06
-0.000132252
7.44107e-06
-0.00013394
7.25985e-06
-0.000146461
6.89767e-06
-0.000151867
9.25004e-06
-0.000138015
8.02039e-06
6.82588e-06
0
0
0
0
0
0
0
0
0
0
0
0
0
0
0
0
0
0
0
0
0
0
0
0
0
0
0
0
0
0
0
0
0
0
0
0
0
0
0
0
0
0
0
0
0
0
0
0
0
0
0
0
0
0
0
0
0
0
0
0
0
0
0
0
0
-1.13469e-186
0
-4.24498e-199
0
-7.08244e-211
0
-8.94055e-215
0
-5.31394e-207
1.78919e-150
0
1.25911e-67
-1.95878e-62
9.68042e-33
-2.61792e-28
4.08556e-17
-1.51885e-14
-2.26007e-09
-9.73727e-11
-7.13903e-07
-4.04693e-09
-1.95657e-05
-4.83319e-07
-8.44534e-05
-3.79788e-06
-0.000107768
-1.87382e-06
-0.00010696
1.01715e-07
-0.000106028
9.61464e-07
-0.000115634
1.68702e-06
-0.000128703
2.05109e-06
-0.000137074
3.26225e-06
-0.000129581
2.96647e-06
-0.00011397
3.17982e-06
-0.000104075
3.0287e-06
-0.000102238
3.07385e-06
-0.000121725
3.80333e-06
-0.000150059
3.95678e-06
-0.000156131
5.1557e-06
-0.000134767
4.85428e-06
-0.000131947
4.64332e-06
-0.000154132
5.47619e-06
-0.000145572
5.16666e-06
-0.000138087
5.78802e-06
-0.000124593
5.814e-06
-0.000108625
4.70095e-06
-0.000119931
4.97049e-06
-0.000133604
4.69525e-06
-0.000134337
5.23506e-06
-0.000124868
4.8265e-06
-0.000109104
4.49412e-06
-0.00011726
4.95102e-06
-0.000144673
5.44636e-06
-0.000127024
5.50234e-06
-0.000113316
4.69746e-06
-0.000116235
3.96776e-06
-0.000114014
3.9745e-06
-0.00013938
3.15609e-06
-0.000149187
3.9164e-06
-0.000128384
3.25847e-06
-0.000122649
5.23718e-06
-0.000120728
9.87095e-06
-0.000143151
9.33472e-06
-0.000141127
7.99078e-06
-0.000130801
6.4302e-06
-0.000145201
6.43321e-06
-0.000139566
5.64778e-06
-0.000123317
5.60847e-06
-0.00012493
5.12645e-06
-0.000123321
5.67122e-06
-0.000141166
5.86631e-06
-0.000168646
8.3474e-06
-0.000147674
8.03716e-06
-0.000141228
5.54152e-06
-0.000146457
5.94012e-06
-0.000143385
7.103e-06
-0.000119418
6.43894e-06
-0.000123344
7.73388e-06
-0.000129085
8.45549e-06
-0.000108147
8.49123e-06
7.50259e-06
0
0
0
0
0
0
0
0
0
0
0
0
0
0
0
0
0
0
0
0
0
0
0
0
0
0
0
0
0
0
0
0
0
0
0
0
0
0
0
0
0
0
0
0
0
0
0
0
0
0
0
0
0
0
0
0
0
0
0
0
0
0
8.35004e-127
-1.80176e-62
7.61751e-135
-7.48152e-61
9.95604e-143
-2.31934e-65
2.40631e-145
-2.71483e-69
3.40782e-140
-1.26815e-70
0
-4.97149e-68
1.02735e-45
0
1.83361e-21
-1.06783e-17
-3.56529e-11
-7.75366e-12
-1.78805e-07
-2.01601e-09
-7.22653e-06
-1.82936e-08
-4.82477e-05
-1.16384e-06
-0.000118672
-1.02716e-06
-0.000110969
1.28241e-07
-0.000126528
1.01416e-06
-0.00013242
1.33064e-06
-0.000125195
1.63347e-06
-0.000114217
2.34497e-06
-0.00013025
2.60084e-06
-0.000136137
2.98069e-06
-0.000120529
3.158e-06
-0.000117732
3.2083e-06
-0.000110267
3.77963e-06
-0.000127019
3.81246e-06
-0.000130461
4.29805e-06
-0.000137917
4.49507e-06
-0.000155091
5.69543e-06
-0.000146748
4.58828e-06
-0.00015153
6.01233e-06
-0.000135928
5.55173e-06
-0.000143878
5.56788e-06
-0.00016749
5.96538e-06
-0.000148734
6.19886e-06
-0.000149156
6.05099e-06
-0.000134185
5.87876e-06
-0.000127984
4.70533e-06
-0.000131482
5.02366e-06
-0.000122579
5.68867e-06
-0.000146724
5.22166e-06
-0.000170719
5.43851e-06
-0.00015593
5.51429e-06
-0.000160919
5.0049e-06
-0.000139962
5.56898e-06
-0.000129932
4.70508e-06
-0.000127171
4.61634e-06
-0.000130842
4.45174e-06
-0.00015474
4.46918e-06
-0.000149418
7.00872e-06
-0.000165285
9.09517e-06
-0.000162982
6.17085e-06
-0.000141015
5.33544e-06
-0.000140512
6.21674e-06
-0.000144664
8.22588e-06
-0.000132649
8.43953e-06
-0.000125836
6.87494e-06
-0.000124186
7.66571e-06
-0.000120148
5.94723e-06
-0.000126802
7.17774e-06
-0.000148709
7.46138e-06
-0.000174299
6.54972e-06
-0.000135997
6.0758e-06
-0.000114024
5.38007e-06
-0.000128908
6.29013e-06
-0.000125976
6.39407e-06
-0.000133936
6.71346e-06
-0.000145003
7.03286e-06
-0.000133327
7.1032e-06
-0.000115947
9.35389e-06
1.04915e-05
0
0
0
0
0
0
0
0
0
0
0
0
0
0
0
0
0
0
0
0
0
0
0
0
0
0
0
0
0
0
0
0
0
0
0
0
0
0
0
0
0
0
0
0
0
0
0
0
0
0
0
0
0
4.17402e-37
0
4.75422e-25
0
2.77581e-22
0
5.24037e-20
1.01198e-43
2.28498e-19
1.06007e-42
-1.0358e-19
9.40846e-46
-2.57035e-19
1.9834e-48
-5.24038e-21
3.50048e-49
-2.17358e-22
1.78841e-47
-5.07083e-23
0
-3.59473e-22
1.10336e-15
-6.67148e-23
-1.4782e-08
-2.8695e-17
-3.60349e-06
3.81482e-10
-3.15124e-05
8.52727e-08
-8.27622e-05
1.19286e-06
-0.000122832
5.79009e-06
-0.000141253
7.42716e-06
-0.000142951
3.08365e-06
-0.000140567
2.07311e-06
-0.000129593
6.99496e-07
-0.000136791
1.57079e-06
-0.000165095
1.88325e-06
-0.000145772
2.24425e-06
-0.000138314
2.28644e-06
-0.000134334
2.89774e-06
-0.000138084
3.43e-06
-0.000154197
4.58439e-06
-0.000134556
4.27923e-06
-0.00014205
4.7954e-06
-0.000164445
5.0105e-06
-0.000138718
5.22708e-06
-0.000142756
4.89537e-06
-0.000155584
6.33684e-06
-0.000151348
5.65182e-06
-0.000147312
5.62509e-06
-0.000139717
5.42647e-06
-0.000156334
5.60944e-06
-0.000147822
5.6284e-06
-0.000126848
5.23048e-06
-0.000115947
4.76743e-06
-0.00013691
4.55315e-06
-0.000157229
6.58703e-06
-0.000127422
5.83465e-06
-0.000121767
4.54923e-06
-0.000124745
5.41455e-06
-0.000127881
4.82952e-06
-0.000145381
5.81387e-06
-0.000141815
5.50953e-06
-0.000150059
4.95721e-06
-0.000142553
6.09133e-06
-0.00014269
4.08845e-06
-0.000174078
5.03472e-06
-0.000149665
4.13028e-06
-0.000138949
1.07498e-05
-0.000140946
9.18461e-06
-0.00016132
6.88637e-06
-0.000196408
6.67698e-06
-0.000180318
7.16031e-06
-0.000177356
7.15098e-06
-0.000154834
6.91513e-06
-0.000148985
6.07573e-06
-0.000173192
6.62879e-06
-0.000143483
7.33718e-06
-0.000117489
6.78298e-06
-0.000113807
6.4e-06
-0.000125436
6.72199e-06
-0.000128914
6.50564e-06
-0.000129866
5.79536e-06
-0.000123265
6.1106e-06
-0.000112587
7.01839e-06
-0.000124327
7.67157e-06
-0.000142723
1.02207e-05
1.14525e-05
0
0
0
0
0
0
0
0
0
0
0
0
0
0
0
0
0
0
0
0
0
0
0
0
0
0
0
0
0
0
0
0
0
0
0
0
0
0
0
0
0
0
0
0
0
-2.00658e-290
0
-2.2792e-145
0
-1.32345e-70
2.91982e-34
1.28461e-23
8.86471e-23
-4.87116e-14
4.05588e-20
-1.65211e-11
8.95064e-18
-5.2531e-11
7.64396e-17
-2.39114e-10
2.28803e-15
-2.93218e-10
3.90546e-15
-4.41232e-10
3.54182e-16
-2.00058e-10
3.80833e-17
-2.42732e-11
1.4052e-17
-1.13624e-11
5.43194e-17
-1.09267e-11
1.97573e-17
-1.4245e-11
3.74369e-17
-9.49149e-12
2.03588e-16
-1.15864e-11
-4.48598e-10
-1.2378e-11
-2.31102e-07
-6.15579e-12
-1.29982e-05
6.91627e-09
-4.36401e-05
5.14238e-07
-8.21351e-05
2.68865e-06
-0.000125342
5.79062e-06
-0.000123096
5.90855e-06
-0.000138011
2.71435e-06
-0.000151642
3.43298e-06
-0.000130896
2.87612e-06
-0.000117862
3.08202e-06
-0.000111449
3.47099e-06
-0.000125553
3.50813e-06
-0.000150496
3.59607e-06
-0.000142606
4.54193e-06
-0.000151249
5.00768e-06
-0.000151362
4.93194e-06
-0.000132765
4.66627e-06
-0.000140015
5.38466e-06
-0.000152253
5.40698e-06
-0.000152459
5.41253e-06
-0.000133553
5.14226e-06
-0.000127313
4.99656e-06
-0.000130523
5.29382e-06
-0.000121712
6.21693e-06
-0.000119089
4.8775e-06
-0.000116586
5.75407e-06
-0.00011181
4.66764e-06
-0.000127885
5.19576e-06
-0.000149346
5.70633e-06
-0.000128139
5.53415e-06
-0.000128279
4.88519e-06
-0.000138322
5.5854e-06
-0.000150073
5.52324e-06
-0.000159161
6.25053e-06
-0.000146562
6.16015e-06
-0.000159896
5.05189e-06
-0.000143508
6.6613e-06
-0.000140522
4.79648e-06
-0.000138653
5.73053e-06
-0.000151222
6.06378e-06
-0.000157934
8.98296e-06
-0.000128996
6.69356e-06
-0.000132311
7.9582e-06
-0.000141684
5.99935e-06
-0.000156866
5.8962e-06
-0.000149778
5.78584e-06
-0.000137248
5.63476e-06
-0.000132029
6.19265e-06
-0.000136769
5.94802e-06
-0.000149303
6.32587e-06
-0.000147264
8.23058e-06
-0.000145094
7.47242e-06
-0.00013494
6.44351e-06
-0.000117688
6.30559e-06
-0.000108244
6.21711e-06
-0.000116304
6.76519e-06
-0.000128075
8.05459e-06
-0.000139428
8.33427e-06
-0.000151913
8.99662e-06
8.32539e-06
0
0
0
0
0
0
0
0
0
0
0
0
0
0
0
0
0
0
0
0
0
0
0
0
0
0
0
0
0
0
0
0
0
0
0
0
0
0
0
0
0
0
4.0247e-205
-1.03903e-194
2.70893e-103
-3.15705e-86
1.27322e-52
-5.33073e-43
2.86379e-21
-6.60743e-19
-3.58543e-12
-6.03801e-11
-8.3762e-10
-9.24314e-09
-1.98603e-09
-1.5117e-07
-8.92803e-09
-2.28852e-07
-1.31814e-08
-2.74657e-07
-3.63883e-08
-3.08715e-07
-3.95776e-08
-5.30025e-07
-1.7039e-08
-3.8265e-07
-8.95765e-09
-7.36317e-08
-8.34205e-09
-9.85409e-09
-1.51957e-08
-9.02686e-09
-7.23759e-09
-1.3614e-08
-1.09985e-08
-1.05085e-08
-1.25197e-08
-9.98197e-09
-4.31417e-09
-1.03967e-08
-3.29318e-09
-7.749e-09
-1.63653e-08
-6.23057e-09
-1.5453e-06
-1.88922e-08
-2.30851e-05
-5.44075e-08
-9.37337e-05
4.93615e-08
-0.000105132
1.72678e-06
-0.000130711
3.36837e-06
-0.000136027
5.65185e-06
-0.000131568
4.58458e-06
-0.000141752
5.22995e-06
-0.000146844
4.56734e-06
-0.000123551
5.25004e-06
-0.000122434
4.32787e-06
-0.000155122
4.65914e-06
-0.000142781
5.60894e-06
-0.000123509
4.3964e-06
-0.000140129
4.86863e-06
-0.000144165
6.17816e-06
-0.000127283
6.15018e-06
-0.000116412
5.34742e-06
-0.000116564
4.63367e-06
-0.000121981
5.77088e-06
-0.00014518
5.39631e-06
-0.000141482
7.10988e-06
-0.000134495
5.70028e-06
-0.000131321
6.90442e-06
-0.000125287
4.83875e-06
-0.000134786
6.1291e-06
-0.000125464
5.13265e-06
-0.000125543
4.8832e-06
-0.000128617
5.18861e-06
-0.000138598
6.14771e-06
-0.0001462
6.63715e-06
-0.000159209
5.40823e-06
-0.000142589
6.67259e-06
-0.000142647
5.27632e-06
-0.000146678
5.54256e-06
-0.00012352
4.99258e-06
-0.000140618
5.9584e-06
-0.000150568
1.02283e-05
-0.000152498
2.90022e-06
-0.000189957
5.0767e-06
-0.000158496
5.63443e-06
-0.000129325
6.82636e-06
-0.000124667
7.56615e-06
-0.000120475
5.94783e-06
-0.000124177
6.81142e-06
-0.000125112
7.10275e-06
-0.00012094
7.19648e-06
-0.000141055
7.30267e-06
-0.000158876
8.90537e-06
-0.000129682
6.61594e-06
-0.000116562
5.93584e-06
-0.000117139
7.56354e-06
-0.000120117
6.22175e-06
-0.000126067
7.39313e-06
-0.000126005
8.28796e-06
-0.000122657
9.36564e-06
-0.000116078
9.53931e-06
9.03527e-06
0
0
0
0
0
0
0
0
0
0
0
0
0
0
0
0
0
0
0
0
0
0
0
0
0
0
0
0
0
0
0
0
0
0
0
0
0
0
0
0
5.24127e-141
0
1.10005e-62
-1.25859e-54
6.21312e-32
-1.82724e-24
-4.30044e-16
-4.6658e-14
-4.14078e-09
-1.3891e-09
-3.2492e-07
-2.55272e-07
-3.59271e-06
-3.17114e-06
-4.07126e-06
-1.13837e-05
-4.89222e-06
-1.27818e-05
-6.36102e-06
-1.51418e-05
-1.39499e-05
-1.08216e-05
-1.55612e-05
-8.95894e-06
-1.20713e-05
-6.50163e-06
-9.43981e-06
-2.61397e-06
-8.15845e-06
-1.28797e-06
-1.09099e-05
-1.11583e-07
-9.86105e-06
-9.11344e-08
-9.21876e-06
-9.67984e-08
-8.56912e-06
-9.49618e-08
-6.66876e-06
-1.54956e-07
-5.99224e-06
-1.21793e-07
-2.0582e-05
-1.62586e-07
-7.44495e-05
-1.01003e-07
-8.45041e-05
6.26179e-07
-0.000112198
2.11035e-06
-0.000113695
4.35561e-06
-0.000124924
6.47441e-06
-0.000124442
7.1354e-06
-0.000128288
4.8078e-06
-0.000127917
5.79174e-06
-0.000133046
5.31041e-06
-0.000147516
5.51651e-06
-0.000133203
4.38606e-06
-0.000133692
4.85548e-06
-0.000127542
5.20413e-06
-0.000122114
4.99443e-06
-0.000141614
4.84566e-06
-0.000168378
5.59566e-06
-0.000158676
6.01359e-06
-0.000125627
5.81641e-06
-0.000131889
4.63019e-06
-0.000146264
5.45683e-06
-0.000146366
5.12103e-06
-0.000159387
5.97375e-06
-0.000164317
6.73369e-06
-0.000139127
5.98165e-06
-0.000132405
5.72429e-06
-0.000132494
5.39439e-06
-0.000115645
5.03871e-06
-0.000118231
4.59978e-06
-0.000147091
5.81262e-06
-0.000181576
5.73657e-06
-0.000151458
5.86084e-06
-0.000143613
5.27052e-06
-0.000160679
5.7697e-06
-0.000136693
6.58719e-06
-0.000121444
4.99326e-06
-0.000120831
4.59008e-06
-0.000140582
3.03351e-06
-0.000143004
2.79957e-06
-0.000150314
8.64249e-06
-0.00015915
1.08739e-05
-0.000148214
6.60431e-06
-0.000177564
7.38469e-06
-0.000155329
6.59587e-06
-0.000145933
6.41287e-06
-0.00016273
7.0581e-06
-0.000164642
6.79926e-06
-0.000171764
8.39798e-06
-0.000179509
6.33374e-06
-0.000148157
9.01345e-06
-0.000120583
6.59663e-06
-0.000137274
7.19299e-06
-0.000133787
7.09376e-06
-0.000122279
6.31225e-06
-0.000138862
6.94346e-06
-0.000151787
6.99251e-06
-0.00015712
9.4055e-06
-0.000142147
8.22677e-06
8.63545e-06
0
0
0
0
0
0
0
0
0
0
0
0
0
0
0
0
0
0
0
0
0
0
0
0
0
0
0
0
0
0
0
0
0
0
0
0
0
0
0
0
3.31742e-41
-5.35213e-44
4.89011e-19
-2.61519e-15
-1.59145e-10
-4.56118e-11
-4.59138e-07
-4.25289e-09
-9.58966e-06
-6.71884e-07
-5.03946e-05
-1.04695e-05
-0.000104455
-1.88194e-05
-0.000109144
-1.88104e-05
-0.000126309
-1.55026e-05
-0.000122099
-1.54734e-05
-0.00012265
-1.0598e-05
-0.000136915
-9.35192e-06
-0.000116824
-7.00834e-06
-0.000118183
-3.63589e-06
-0.00012331
-2.25016e-06
-0.000104604
1.98342e-09
-0.000102571
6.49824e-07
-0.000106434
1.24569e-06
-0.000133891
1.28862e-06
-0.000146789
1.4225e-06
-0.000147985
1.44892e-06
-0.000168645
1.93929e-06
-0.000178045
1.94857e-06
-0.000165712
3.13994e-06
-0.000137747
3.22422e-06
-0.000158585
4.72664e-06
-0.000191736
4.07738e-06
-0.000147618
4.66654e-06
-0.000141531
4.04044e-06
-0.000178371
2.95763e-06
-0.000182667
3.49824e-06
-0.000145619
2.60782e-06
-0.000142161
2.78851e-06
-0.000161414
3.2874e-06
-0.000165804
2.98816e-06
-0.000152542
3.19443e-06
-0.000141344
3.99766e-06
-0.00014477
3.54871e-06
-0.000152257
3.7378e-06
-0.000140999
4.39152e-06
-0.000125514
3.16193e-06
-0.00012535
4.15102e-06
-0.000133892
3.58878e-06
-0.000159682
4.50684e-06
-0.000155179
4.1875e-06
-0.000154885
3.90855e-06
-0.00014678
5.05319e-06
-0.00012987
4.02156e-06
-0.000126819
4.35106e-06
-0.000142428
3.84945e-06
-0.000145958
5.13001e-06
-0.000126317
4.07142e-06
-0.000135194
4.44288e-06
-0.000141831
4.2223e-06
-0.000161942
4.35242e-06
-0.000171689
4.39993e-06
-0.000153038
3.58286e-06
-0.000141567
3.9004e-06
-0.000153646
3.00208e-06
-0.000162144
1.88272e-06
-0.000144871
4.75212e-06
-0.000139042
8.70153e-06
-0.000149645
5.54353e-06
-0.000148746
5.10244e-06
-0.000142745
4.97074e-06
-0.0001498
5.21681e-06
-0.000143276
4.81389e-06
-0.000160556
5.26746e-06
-0.000144752
4.8302e-06
-0.000143088
4.31588e-06
-0.00015156
6.33845e-06
-0.000138043
6.6664e-06
-0.000128274
6.06327e-06
-0.000112328
5.31835e-06
-0.000112348
6.57651e-06
-0.000109464
5.7549e-06
-0.000120152
5.63275e-06
-0.0001226
8.95172e-06
-0.000113799
8.50716e-06
8.77144e-06
0
0
0
0
0
0
0
0
0
0
0
0
0
0
0
0
0
0
0
3.7602e-34
-9.79058e-12
-1.11501e-07
-8.79165e-06
-4.95605e-05
-0.000122947
-0.000167779
-0.00018488
-0.00019028
-0.00022718
-0.000241498
-0.000238998
-0.000243217
-0.000276616
-0.00025599
-0.000215986
-0.000236375
-0.000282661
-0.000283118
-0.000237362
-0.000222016
-0.000243088
-0.000242855
-0.000242526
-0.000235543
-0.000257433
-0.000259552
-0.000243614
-0.000299296
-0.000248236
-0.000228312
-0.000220359
-0.000209148
-0.000234035
-0.000215982
-0.000196112
-0.000235859
-0.000254761
-0.000227217
-0.000251597
-0.000219025
-0.000222866
-0.000247063
-0.000245156
-0.000243764
-0.000217116
-0.000247206
-0.000260968
-0.000251146
-0.000242069
-0.000247418
-0.000253406
-0.000251379
-0.00024208
-0.000226417
-0.000212675
-0.000177553
-0.00018455
-0.000214315
-0.000202901
-0.000181939
-0.000201887
-0.000208509
-0.00018838
-0.00020516
-0.000208392
-0.00019203
-0.000191595
-0.000177051
-0.000153878
-0.000167626
-0.000201929
-0.000184465
-0.00014881
-0.000154319
-0.000147747
-0.00012256
-0.000137898
-0.000159391
-0.000136457
)
;

boundaryField
{
    inlet
    {
        type            fixedValue;
        value           nonuniform List<scalar> 10(-5e-05 -5e-05 -5e-05 -5e-05 -5e-05 -5e-05 -5e-05 -5e-05 -5e-05 -5e-05);
    }
    outlet
    {
        type            calculated;
        value           uniform 0;
    }
    walls
    {
        type            fixedValue;
        value           uniform 0;
    }
}


// ************************************************************************* //
