/*--------------------------------*- C++ -*----------------------------------*\
| =========                 |                                                 |
| \\      /  F ield         | foam-extend: Open Source CFD                    |
|  \\    /   O peration     | Version:     5.0                                |
|   \\  /    A nd           | Web:         http://www.foam-extend.org         |
|    \\/     M anipulation  |                                                 |
\*---------------------------------------------------------------------------*/
FoamFile
{
    version     2.0;
    format      ascii;
    class       surfaceScalarField;
    location    "4000";
    object      phi.oil;
}
// * * * * * * * * * * * * * * * * * * * * * * * * * * * * * * * * * * * * * //

dimensions      [0 3 -1 0 0 0 0];

internalField   nonuniform List<scalar> 
1890
(
-4.73669e-05
-1.30372e-06
-5.27399e-05
-6.20201e-07
-5.6663e-05
-4.85391e-07
-5.63468e-05
-2.99554e-07
-6.12282e-05
-1.93966e-07
-6.49948e-05
-1.42312e-07
-5.74486e-05
-1.33553e-07
-5.73613e-05
-6.93738e-08
-6.4689e-05
-6.53517e-08
-5.00901e-05
-5.01592e-08
-4.35262e-05
-3.41289e-08
-4.35005e-05
-2.8803e-08
-4.16655e-05
-2.39464e-08
-4.25291e-05
-2.62862e-08
-5.25708e-05
-2.94834e-08
-6.23844e-05
-3.65493e-08
-4.86483e-05
-5.37721e-08
-4.52814e-05
-4.99181e-08
-4.62684e-05
-7.29046e-08
-4.22521e-05
-8.20321e-08
-4.60716e-05
-1.13521e-07
-5.33782e-05
-1.52166e-07
-5.04451e-05
-2.18146e-07
-5.02051e-05
-2.33962e-07
-5.56243e-05
-3.0134e-07
-5.37221e-05
-3.47392e-07
-4.6822e-05
-3.57347e-07
-4.32816e-05
-3.82835e-07
-5.10426e-05
-3.67768e-07
-6.24266e-05
-5.2595e-07
-5.02035e-05
-4.01727e-07
-4.49548e-05
-3.7853e-07
-4.81548e-05
-3.5846e-07
-5.0496e-05
-3.25123e-07
-4.63348e-05
-2.9991e-07
-3.90739e-05
-2.09948e-07
-3.80577e-05
-2.01997e-07
-4.56606e-05
-1.69159e-07
-4.92558e-05
-1.98773e-07
-4.01252e-05
-1.97502e-07
-3.99251e-05
-1.83393e-07
-3.96668e-05
-2.84096e-07
-4.21931e-05
-3.35293e-07
-4.27316e-05
-5.29565e-07
-3.7379e-05
-6.80222e-07
-4.4597e-05
-7.61234e-07
-4.63002e-05
-9.57565e-07
-3.77614e-05
-9.99931e-07
-3.97732e-05
-9.64346e-07
-4.00609e-05
-8.36032e-07
-3.66517e-05
-4.98982e-07
-3.54776e-05
-3.16088e-07
-3.5282e-05
-2.28317e-07
-3.98831e-05
-1.4743e-07
-3.87014e-05
-1.34143e-07
-4.07034e-05
-1.26849e-07
-4.16633e-05
-2.29574e-07
-3.90895e-05
-4.14181e-07
-4.28354e-05
-4.07028e-07
-4.3058e-05
-1.12682e-07
-4.00223e-05
-1.0912e-09
-3.21815e-05
-7.20487e-09
-3.12804e-05
-3.97693e-08
-3.63533e-05
-8.94805e-08
-3.27858e-05
-1.08068e-07
-3.2753e-05
-1.23765e-07
-3.44055e-05
-1.22141e-07
-3.43664e-05
-1.43632e-07
-3.71856e-05
-1.58921e-07
-3.81934e-05
-1.66582e-07
-3.51247e-05
-1.66493e-07
-3.60014e-05
-1.57754e-07
-3.79733e-05
-1.81419e-07
-3.48643e-05
-2.13245e-07
-3.47069e-05
-2.83081e-07
-3.53846e-05
-4.07626e-07
-3.58831e-05
-6.66051e-07
-3.72321e-05
-1.09839e-06
-3.36583e-05
-1.5678e-06
-2.58578e-05
8.28965e-07
-2.42545e-05
1.34202e-06
-2.18945e-05
5.80779e-07
-2.15319e-05
8.09268e-08
-2.15037e-05
1.52016e-08
-1.73166e-05
-3.28616e-08
-1.59841e-05
-5.65487e-08
-1.43641e-05
-5.7807e-08
-1.13519e-05
9.81855e-09
-1.06276e-05
3.50638e-10
-1.09828e-05
-3.77847e-08
-1.12404e-05
-7.53586e-08
-8.29926e-06
-2.90948e-08
-7.31957e-06
2.53088e-08
-7.43516e-06
6.37111e-09
-6.14064e-06
-1.47834e-08
-4.47262e-06
4.1287e-09
-3.22271e-06
3.03607e-08
-2.31289e-06
2.72359e-08
-1.75941e-06
-3.85989e-08
-3.57747e-08
-5.42603e-05
-1.7151e-06
-5.11639e-05
-9.91283e-07
-5.49801e-05
-8.8736e-07
-4.70943e-05
-5.7197e-07
-4.20473e-05
-3.06975e-07
-5.03322e-05
-2.37271e-07
-5.02403e-05
-2.11234e-07
-4.56109e-05
-1.31416e-07
-5.14058e-05
-1.0853e-07
-5.56458e-05
-9.26576e-08
-5.56107e-05
-6.82211e-08
-5.0023e-05
-5.22511e-08
-5.26302e-05
-5.39913e-08
-5.87932e-05
-5.70552e-08
-4.99475e-05
-6.82035e-08
-5.25429e-05
-6.47664e-08
-5.70016e-05
-9.69863e-08
-5.11033e-05
-1.11094e-07
-4.8546e-05
-1.44349e-07
-4.96731e-05
-1.66386e-07
-5.08307e-05
-2.58148e-07
-5.20143e-05
-2.91305e-07
-5.46967e-05
-3.97244e-07
-5.15734e-05
-4.66231e-07
-4.99629e-05
-5.2061e-07
-4.72058e-05
-6.03967e-07
-4.92493e-05
-7.63383e-07
-4.88433e-05
-8.41777e-07
-5.24594e-05
-8.93447e-07
-4.92706e-05
-1.00107e-06
-4.76064e-05
-6.57443e-07
-5.41772e-05
-7.83998e-07
-5.07958e-05
-6.83036e-07
-4.90979e-05
-6.1688e-07
-4.19981e-05
-5.11902e-07
-4.17774e-05
-4.78695e-07
-4.15809e-05
-4.63118e-07
-3.87036e-05
-3.45836e-07
-4.32527e-05
-3.1653e-07
-4.10839e-05
-3.9065e-07
-3.99833e-05
-4.13976e-07
-4.16524e-05
-5.05451e-07
-3.94352e-05
-8.02079e-07
-4.39953e-05
-8.69393e-07
-4.55729e-05
-1.47405e-06
-4.53277e-05
-2.45293e-06
-5.02216e-05
-2.84598e-06
-4.89205e-05
-2.0988e-06
-4.13087e-05
-1.29066e-06
-3.47509e-05
-7.72061e-07
-3.17369e-05
-6.19506e-07
-3.56453e-05
-5.43566e-07
-3.36541e-05
-5.65767e-07
-2.83467e-05
-3.76209e-07
-2.88378e-05
-3.43886e-07
-3.00367e-05
-3.30344e-07
-3.38685e-05
-4.31342e-07
-3.06944e-05
-5.25089e-07
-2.69358e-05
-4.22462e-07
-2.92788e-05
-2.66493e-07
-3.55966e-05
-2.33385e-07
-3.86922e-05
-2.40761e-07
-3.538e-05
-2.21356e-07
-3.18001e-05
-2.36214e-07
-3.52949e-05
-2.11899e-07
-3.34145e-05
-2.51901e-07
-3.25239e-05
-2.43608e-07
-3.84038e-05
-2.94905e-07
-3.72342e-05
-3.05165e-07
-3.41784e-05
-2.84716e-07
-3.08066e-05
-2.65338e-07
-2.80317e-05
-3.11126e-07
-2.86233e-05
-3.36685e-07
-3.3974e-05
-3.39308e-07
-3.91874e-05
-4.57311e-07
-4.16768e-05
-5.72925e-07
-3.56194e-05
-8.14422e-07
-3.37511e-05
-1.33435e-06
-3.09644e-05
-1.96647e-06
-2.64836e-05
-2.48078e-07
-2.92364e-05
1.80914e-06
-2.10786e-05
8.58534e-07
-1.85558e-05
3.86647e-07
-2.21286e-05
-1.01615e-07
-1.65061e-05
-1.09836e-07
-1.35062e-05
-3.98424e-08
-1.45979e-05
-1.14441e-07
-1.45901e-05
-1.13533e-07
-1.21893e-05
-9.07028e-08
-9.15671e-06
-3.29302e-08
-7.82558e-06
1.15892e-08
-7.72961e-06
-2.05342e-08
-8.934e-06
-1.0091e-07
-7.76663e-06
-1.19837e-07
-5.69716e-06
-8.58097e-08
-4.59605e-06
-7.72753e-08
-4.02168e-06
-9.77519e-08
-3.07793e-06
-8.46247e-08
-1.81926e-06
-1.02883e-07
-6.57894e-08
-4.85966e-05
-1.74785e-06
-5.64782e-05
-1.29411e-06
-6.32991e-05
-9.4684e-07
-4.92487e-05
-6.91357e-07
-4.47603e-05
-4.69488e-07
-4.78673e-05
-3.7092e-07
-4.89653e-05
-2.66574e-07
-5.0136e-05
-1.88571e-07
-5.41574e-05
-1.41893e-07
-5.1348e-05
-1.2737e-07
-4.35124e-05
-9.63352e-08
-4.87982e-05
-7.36664e-08
-5.55541e-05
-7.44292e-08
-5.7119e-05
-7.08961e-08
-5.87736e-05
-8.89748e-08
-5.39804e-05
-1.0837e-07
-5.39454e-05
-1.17755e-07
-5.38998e-05
-1.68774e-07
-4.98014e-05
-2.14488e-07
-5.10016e-05
-2.74281e-07
-5.22381e-05
-3.24571e-07
-4.82852e-05
-4.67536e-07
-4.69675e-05
-5.27457e-07
-4.3634e-05
-6.16823e-07
-4.15349e-05
-8.0418e-07
-4.84619e-05
-9.00773e-07
-5.34128e-05
-1.31247e-06
-5.60561e-05
-1.41462e-06
-5.90128e-05
-1.34223e-06
-4.56378e-05
-1.26397e-06
-4.12168e-05
-1.15345e-06
-4.38013e-05
-1.22526e-06
-4.34779e-05
-9.3545e-07
-4.12287e-05
-1.00182e-06
-4.62453e-05
-7.99918e-07
-5.27769e-05
-8.32302e-07
-4.58053e-05
-6.61717e-07
-3.95414e-05
-6.10926e-07
-4.22203e-05
-5.30036e-07
-5.35848e-05
-4.73372e-07
-4.76851e-05
-5.58177e-07
-4.75093e-05
-7.29849e-07
-4.47267e-05
-1.18426e-06
-3.69838e-05
-1.89041e-06
-4.08579e-05
-2.772e-06
-4.22903e-05
-2.22248e-06
-3.59211e-05
-1.75166e-06
-3.18828e-05
-1.14176e-06
-3.34431e-05
-9.59543e-07
-3.66624e-05
-8.47699e-07
-3.84274e-05
-9.69191e-07
-3.59388e-05
-7.62126e-07
-3.12563e-05
-6.73109e-07
-2.82927e-05
-5.44745e-07
-2.75817e-05
-4.80606e-07
-3.25942e-05
-5.32289e-07
-3.99125e-05
-5.26835e-07
-4.12718e-05
-6.50117e-07
-3.54193e-05
-5.5003e-07
-3.44106e-05
-4.22078e-07
-3.9884e-05
-4.0454e-07
-3.73997e-05
-3.3708e-07
-3.52143e-05
-3.573e-07
-3.15806e-05
-3.61246e-07
-2.73591e-05
-2.97802e-07
-3.00206e-05
-3.20446e-07
-3.32614e-05
-3.1118e-07
-3.32543e-05
-3.53276e-07
-3.07546e-05
-3.35912e-07
-2.67382e-05
-3.23848e-07
-2.85976e-05
-3.73117e-07
-3.51226e-05
-4.37129e-07
-3.07218e-05
-4.80578e-07
-2.73012e-05
-4.58383e-07
-2.79217e-05
-4.54477e-07
-2.733e-05
-5.66033e-07
-3.33831e-05
-6.00331e-07
-3.57691e-05
-1.01779e-06
-3.09153e-05
-8.68024e-07
-2.90359e-05
-2.53939e-07
-2.38255e-05
8.9611e-07
-2.15788e-05
8.27303e-07
-2.00988e-05
2.9705e-07
-1.60169e-05
1.78071e-07
-1.65339e-05
4.36562e-08
-1.49051e-05
-4.30805e-08
-1.20482e-05
-2.24682e-08
-1.10462e-05
-3.446e-08
-1.01596e-05
-4.18637e-08
-1.02916e-05
-1.67914e-08
-1.1837e-05
-6.84644e-08
-9.50171e-06
-7.4634e-08
-8.13087e-06
-9.73019e-08
-7.5725e-06
-8.97385e-08
-6.62094e-06
-6.69849e-08
-4.76266e-06
-4.14171e-08
-3.6376e-06
2.28278e-08
-3.20859e-06
-2.79174e-08
-1.60862e-06
1.15296e-08
-2.57136e-09
-5.62045e-05
-1.84057e-06
-4.80874e-05
-1.42535e-06
-4.38175e-05
-8.72145e-07
-5.02988e-05
-7.11989e-07
-5.58045e-05
-5.82319e-07
-5.4233e-05
-4.42232e-07
-4.88984e-05
-3.36494e-07
-4.55336e-05
-2.20837e-07
-4.88402e-05
-1.55367e-07
-5.71899e-05
-1.45549e-07
-5.88531e-05
-1.13238e-07
-5.12938e-05
-1.04003e-07
-4.7618e-05
-9.25485e-08
-4.99861e-05
-9.04582e-08
-5.71107e-05
-9.69825e-08
-5.55051e-05
-1.3676e-07
-5.39809e-05
-1.40527e-07
-5.87091e-05
-1.72996e-07
-6.04389e-05
-2.3963e-07
-5.10826e-05
-3.64998e-07
-4.9726e-05
-4.12227e-07
-5.2225e-05
-6.6034e-07
-4.39609e-05
-7.4899e-07
-4.6894e-05
-8.10004e-07
-5.02051e-05
-1.33309e-06
-5.11438e-05
-1.35415e-06
-6.01979e-05
-1.62517e-06
-5.15533e-05
-1.91302e-06
-4.29101e-05
-1.77163e-06
-4.79268e-05
-1.79451e-06
-5.78617e-05
-1.62153e-06
-4.96154e-05
-1.93271e-06
-4.92408e-05
-1.28772e-06
-5.65623e-05
-1.37092e-06
-5.14248e-05
-1.0274e-06
-4.71385e-05
-1.11828e-06
-4.95518e-05
-9.03973e-07
-5.73365e-05
-8.54054e-07
-4.66313e-05
-8.70426e-07
-4.02042e-05
-4.98075e-07
-4.78859e-05
-4.45615e-07
-4.63983e-05
-1.04569e-06
-3.79177e-05
-1.92714e-06
-4.00036e-05
-1.78537e-06
-3.83468e-05
-1.77187e-06
-3.45402e-05
-1.05444e-06
-3.63887e-05
-1.33338e-06
-3.25458e-05
-1.02602e-06
-2.89502e-05
-1.06527e-06
-3.20352e-05
-9.40414e-07
-3.35102e-05
-9.98886e-07
-2.92489e-05
-8.27579e-07
-2.84273e-05
-7.07568e-07
-2.64791e-05
-6.90745e-07
-3.03895e-05
-6.08875e-07
-3.11402e-05
-6.1258e-07
-3.28134e-05
-5.72321e-07
-3.68117e-05
-6.57258e-07
-3.47342e-05
-4.69812e-07
-3.57625e-05
-5.28432e-07
-3.19871e-05
-4.22609e-07
-3.37483e-05
-3.80001e-07
-3.9181e-05
-3.83615e-07
-3.47024e-05
-3.88858e-07
-3.47093e-05
-3.78734e-07
-3.11604e-05
-3.71576e-07
-2.96533e-05
-3.02136e-07
-3.04081e-05
-3.30042e-07
-2.82999e-05
-3.85465e-07
-3.38193e-05
-3.67806e-07
-3.92908e-05
-4.01565e-07
-3.584e-05
-4.32834e-07
-3.69458e-05
-4.25303e-07
-3.21068e-05
-5.22842e-07
-2.97984e-05
-4.99343e-07
-2.91564e-05
-5.59765e-07
-3.00178e-05
-5.99473e-07
-3.55065e-05
-5.52221e-07
-3.43031e-05
-3.02208e-07
-3.76578e-05
3.34602e-07
-3.37245e-05
5.1288e-09
-2.31086e-05
2.58986e-07
-1.95176e-05
4.24147e-07
-1.82974e-05
4.86895e-07
-1.56501e-05
3.43163e-07
-1.332e-05
1.99225e-07
-1.22434e-05
1.40216e-07
-1.07628e-05
4.63004e-08
-1.04229e-05
4.34804e-08
-1.12138e-05
-7.50866e-09
-1.2433e-05
-9.73041e-08
-9.14697e-06
-1.0254e-07
-6.55461e-06
-3.62816e-08
-6.47234e-06
-4.1213e-08
-5.67216e-06
-7.01209e-08
-4.73188e-06
-3.23002e-08
-4.50026e-06
-6.72806e-08
-3.02819e-06
-1.34412e-08
-1.77541e-06
4.90561e-08
9.49084e-08
-5.01896e-05
-1.95608e-06
-4.66627e-05
-1.45397e-06
-4.55734e-05
-9.39058e-07
-4.77154e-05
-7.39486e-07
-4.8855e-05
-6.07767e-07
-5.26913e-05
-4.51096e-07
-5.26753e-05
-3.18491e-07
-4.65395e-05
-2.63212e-07
-4.8801e-05
-1.63248e-07
-5.00141e-05
-1.38082e-07
-5.12908e-05
-1.02863e-07
-6.25047e-05
-1.16111e-07
-6.45152e-05
-9.75446e-08
-5.71367e-05
-1.07118e-07
-5.71304e-05
-9.52183e-08
-5.71225e-05
-1.22495e-07
-4.64862e-05
-1.67446e-07
-4.34426e-05
-1.95849e-07
-4.99387e-05
-2.47754e-07
-5.70372e-05
-3.41418e-07
-6.04346e-05
-4.49947e-07
-6.034e-05
-6.73387e-07
-5.22692e-05
-9.29219e-07
-5.34708e-05
-1.1348e-06
-5.61954e-05
-1.58078e-06
-4.87764e-05
-1.99852e-06
-4.71105e-05
-1.89024e-06
-5.16111e-05
-2.22189e-06
-5.71861e-05
-2.61612e-06
-4.78414e-05
-2.71262e-06
-4.73495e-05
-2.10121e-06
-5.08317e-05
-2.1886e-06
-4.53952e-05
-1.74913e-06
-4.10031e-05
-1.56989e-06
-4.60166e-05
-1.12198e-06
-5.7642e-05
-1.17497e-06
-5.23635e-05
-1.05637e-06
-5.37729e-05
-9.69201e-07
-4.77911e-05
-9.51759e-07
-4.39794e-05
-8.2118e-07
-4.25337e-05
-9.29027e-07
-3.5287e-05
-3.64243e-07
-3.57004e-05
3.46301e-07
-4.01573e-05
-2.50486e-07
-3.86007e-05
-1.073e-06
-3.59999e-05
-1.48823e-06
-3.21918e-05
-1.4981e-06
-3.28485e-05
-1.41705e-06
-3.9299e-05
-1.43652e-06
-3.44392e-05
-1.28214e-06
-3.22285e-05
-9.28163e-07
-3.11917e-05
-8.84222e-07
-3.18382e-05
-7.92333e-07
-3.55031e-05
-8.62504e-07
-3.09017e-05
-6.79766e-07
-3.25473e-05
-6.54014e-07
-3.76388e-05
-6.04635e-07
-3.17153e-05
-5.55023e-07
-3.25978e-05
-4.57448e-07
-3.54983e-05
-5.22091e-07
-3.44996e-05
-4.14175e-07
-3.35537e-05
-3.75633e-07
-3.18017e-05
-3.4032e-07
-3.55618e-05
-3.40037e-07
-3.36073e-05
-3.36675e-07
-2.88276e-05
-3.13675e-07
-2.63424e-05
-2.89296e-07
-3.10966e-05
-2.81754e-07
-3.5696e-05
-4.18515e-07
-2.892e-05
-3.83821e-07
-2.76281e-05
-3.12592e-07
-2.82936e-05
-3.92971e-07
-2.89935e-05
-3.75183e-07
-3.29476e-05
-4.88876e-07
-3.2129e-05
-5.0754e-07
-3.39838e-05
-4.98207e-07
-3.22773e-05
-6.59431e-07
-3.22994e-05
-4.78832e-07
-3.93728e-05
-8.35289e-07
-3.27284e-05
-6.9285e-07
-2.45975e-05
6.33649e-07
-2.00851e-05
4.99121e-07
-1.97094e-05
1.27726e-07
-2.32206e-05
-6.28595e-08
-2.02035e-05
-4.64695e-08
-1.83009e-05
-4.22039e-09
-1.53388e-05
-4.52212e-08
-1.32602e-05
5.81539e-09
-1.47748e-05
-3.45449e-08
-1.15769e-05
-7.35176e-09
-8.53355e-06
3.05697e-08
-7.33265e-06
1.50367e-08
-7.10896e-06
-1.00349e-08
-6.60452e-06
-6.18866e-08
-5.60993e-06
-6.01865e-08
-4.62236e-06
-5.47877e-08
-3.16238e-06
5.10734e-09
-2.32746e-06
9.06522e-09
-1.53087e-06
1.36198e-08
2.6169e-09
-5.86005e-05
-2.25618e-06
-4.98376e-05
-1.32106e-06
-4.53357e-05
-1.02477e-06
-4.98988e-05
-6.65556e-07
-5.39715e-05
-5.82322e-07
-4.75651e-05
-4.94266e-07
-4.99585e-05
-2.96445e-07
-5.12514e-05
-2.57665e-07
-4.44257e-05
-1.79307e-07
-4.44318e-05
-1.19732e-07
-5.26223e-05
-1.00183e-07
-5.40495e-05
-1.1771e-07
-5.26314e-05
-7.7863e-08
-5.1286e-05
-9.64873e-08
-4.54617e-05
-8.31278e-08
-5.26445e-05
-1.17853e-07
-6.45382e-05
-1.66733e-07
-5.88494e-05
-1.95819e-07
-4.8806e-05
-2.49782e-07
-4.3502e-05
-3.24075e-07
-4.44624e-05
-4.45957e-07
-4.99939e-05
-6.49257e-07
-5.39739e-05
-9.04339e-07
-5.23966e-05
-1.52175e-06
-5.49966e-05
-1.66104e-06
-5.16418e-05
-2.18596e-06
-4.61697e-05
-2.32314e-06
-5.03237e-05
-3.0448e-06
-5.38598e-05
-2.96928e-06
-5.47161e-05
-3.4625e-06
-5.10884e-05
-3.00615e-06
-4.79357e-05
-2.41607e-06
-4.88446e-05
-2.2304e-06
-4.49023e-05
-1.96708e-06
-3.97263e-05
-1.33372e-06
-4.0485e-05
-1.18593e-06
-4.55427e-05
-1.05381e-06
-4.78912e-05
-9.77047e-07
-4.78048e-05
-8.88916e-07
-4.42089e-05
-8.11496e-07
-3.85823e-05
-6.85349e-07
-4.31821e-05
-5.31353e-07
-4.33028e-05
-2.76964e-07
-3.43588e-05
3.43703e-07
-3.66583e-05
3.85498e-07
-3.72397e-05
-6.4174e-07
-3.57446e-05
-9.15489e-07
-3.927e-05
-1.31274e-06
-3.23691e-05
-1.07357e-06
-2.81181e-05
-8.74962e-07
-2.59684e-05
-7.86116e-07
-2.87995e-05
-7.13144e-07
-3.44292e-05
-7.00787e-07
-3.24946e-05
-7.30077e-07
-3.42903e-05
-6.736e-07
-3.42859e-05
-5.96143e-07
-2.9997e-05
-4.87516e-07
-3.15971e-05
-4.92706e-07
-3.43381e-05
-4.43493e-07
-3.43698e-05
-3.99642e-07
-3.00986e-05
-3.44953e-07
-2.86886e-05
-3.09996e-07
-2.94124e-05
-3.11562e-07
-2.74301e-05
-3.55141e-07
-2.68451e-05
-2.74877e-07
-2.62857e-05
-3.24251e-07
-2.52153e-05
-2.64803e-07
-2.88457e-05
-2.99106e-07
-3.36833e-05
-3.34359e-07
-2.88983e-05
-3.33031e-07
-2.89263e-05
-3.04518e-07
-3.11816e-05
-3.63455e-07
-3.3815e-05
-3.78801e-07
-3.58488e-05
-4.55056e-07
-3.299e-05
-4.77373e-07
-3.59689e-05
-4.10374e-07
-3.22653e-05
-5.50225e-07
-3.15673e-05
-3.66447e-07
-3.11381e-05
-3.45271e-07
-3.37278e-05
-2.29135e-07
-3.2553e-05
3.16259e-07
-2.05631e-05
2.46891e-07
-1.76703e-05
3.32309e-07
-1.70038e-05
9.93706e-09
-1.76134e-05
-6.40341e-08
-1.58761e-05
-8.24207e-08
-1.33472e-05
-3.08782e-08
-1.18845e-05
-2.83093e-09
-1.12482e-05
-1.0652e-08
-1.14413e-05
-2.61945e-08
-1.04587e-05
4.04131e-09
-9.353e-06
-2.48716e-08
-7.95248e-06
-5.8097e-08
-6.05884e-06
-3.52205e-08
-4.66686e-06
-2.60835e-08
-3.9059e-06
-1.79867e-08
-3.4407e-06
-4.54641e-08
-2.49024e-06
-5.32128e-08
-1.6548e-06
-8.81037e-08
-7.46526e-08
-5.20168e-05
-2.13019e-06
-4.83008e-05
-1.32817e-06
-4.72475e-05
-1.05505e-06
-4.41789e-05
-6.57635e-07
-5.53067e-05
-4.80944e-07
-5.86288e-05
-3.70929e-07
-5.25044e-05
-3.04675e-07
-5.54589e-05
-2.03109e-07
-5.12193e-05
-1.4541e-07
-4.64733e-05
-1.09275e-07
-5.55275e-05
-8.73467e-08
-5.40414e-05
-9.41932e-08
-5.00006e-05
-7.51253e-08
-4.87931e-05
-8.48376e-08
-5.13091e-05
-7.28085e-08
-5.8873e-05
-1.20287e-07
-4.88404e-05
-1.43987e-07
-4.55325e-05
-1.50375e-07
-4.88943e-05
-2.43193e-07
-5.2795e-05
-3.35179e-07
-5.42716e-05
-5.11864e-07
-5.0249e-05
-6.33214e-07
-5.58633e-05
-9.2248e-07
-5.58044e-05
-1.45384e-06
-4.4427e-05
-2.16239e-06
-4.21168e-05
-2.38135e-06
-4.7568e-05
-3.11062e-06
-4.78841e-05
-4.43345e-06
-4.94887e-05
-3.57647e-06
-5.44494e-05
-3.59884e-06
-4.81087e-05
-3.06781e-06
-4.76258e-05
-3.05713e-06
-4.98753e-05
-2.94853e-06
-4.35433e-05
-2.32772e-06
-4.13638e-05
-1.52215e-06
-4.32823e-05
-1.31806e-06
-4.11854e-05
-1.29978e-06
-4.11262e-05
-1.02e-06
-4.01469e-05
-9.19659e-07
-3.83895e-05
-8.28253e-07
-4.01873e-05
-6.65406e-07
-4.12646e-05
-3.96625e-07
-3.94414e-05
-2.86684e-07
-3.6995e-05
-6.27312e-07
-3.89344e-05
-5.75072e-07
-3.89385e-05
1.37208e-07
-3.6349e-05
3.64311e-07
-3.74005e-05
1.26402e-07
-3.32513e-05
-1.24167e-07
-3.43834e-05
-2.97013e-07
-3.4969e-05
-4.24964e-07
-2.88905e-05
-5.18438e-07
-2.79469e-05
-4.37159e-07
-3.52725e-05
-4.95044e-07
-3.24024e-05
-5.64054e-07
-2.78355e-05
-3.94799e-07
-3.15016e-05
-3.93848e-07
-3.23876e-05
-4.5495e-07
-2.85584e-05
-4.12532e-07
-2.61015e-05
-3.32284e-07
-2.61288e-05
-2.70039e-07
-2.73464e-05
-3.18887e-07
-3.25548e-05
-2.87775e-07
-3.1729e-05
-3.71217e-07
-3.01747e-05
-2.95552e-07
-2.94672e-05
-3.58591e-07
-2.81278e-05
-2.53835e-07
-3.0268e-05
-3.26193e-07
-2.81862e-05
-2.78732e-07
-2.82176e-05
-2.72401e-07
-2.89227e-05
-2.99167e-07
-3.11861e-05
-3.69024e-07
-3.29144e-05
-4.17073e-07
-3.58728e-05
-3.58046e-07
-3.2146e-05
-4.66247e-07
-3.22099e-05
-3.87027e-07
-3.31409e-05
-4.06439e-07
-2.79567e-05
-3.04043e-07
-3.18775e-05
-4.99189e-08
-3.40597e-05
4.07976e-07
-3.08846e-05
-5.09889e-07
-3.15676e-05
-3.65506e-08
-2.44291e-05
1.86794e-07
-1.68316e-05
4.69622e-07
-1.47801e-05
3.83941e-07
-1.29866e-05
1.9156e-07
-1.22611e-05
1.89111e-07
-1.15073e-05
1.4329e-07
-1.01894e-05
1.21236e-07
-1.07683e-05
8.05002e-08
-1.16125e-05
3.30024e-08
-8.7227e-06
-4.98096e-09
-6.84789e-06
1.90826e-08
-6.05541e-06
4.4064e-08
-5.26592e-06
4.91713e-09
-4.66256e-06
2.07702e-08
-3.78579e-06
3.38069e-08
-2.72764e-06
5.40426e-08
-1.55926e-06
3.92349e-08
2.15132e-08
-6.1217e-05
-1.62714e-06
-6.14621e-05
-1.12172e-06
-5.80715e-05
-9.15092e-07
-5.35352e-05
-6.05618e-07
-4.51315e-05
-3.34886e-07
-4.97394e-05
-2.42672e-07
-5.53451e-05
-2.05693e-07
-4.53309e-05
-1.34502e-07
-4.53677e-05
-9.24151e-08
-4.87178e-05
-7.59073e-08
-5.12418e-05
-6.35342e-08
-5.88023e-05
-6.46048e-08
-6.25017e-05
-5.93738e-08
-5.40766e-05
-6.78235e-08
-5.41e-05
-5.19974e-08
-6.25853e-05
-8.05476e-08
-5.56674e-05
-1.1244e-07
-5.73063e-05
-1.28996e-07
-6.47735e-05
-2.09545e-07
-6.48722e-05
-2.37058e-07
-5.92712e-05
-3.25828e-07
-5.61375e-05
-4.36487e-07
-5.33779e-05
-7.89801e-07
-5.65129e-05
-1.15586e-06
-5.63478e-05
-2.79328e-06
-4.89177e-05
-3.10752e-06
-5.45213e-05
-4.58205e-06
-5.16636e-05
-6.45221e-06
-4.13405e-05
-4.99968e-06
-3.79501e-05
-4.27801e-06
-4.35695e-05
-3.4643e-06
-5.52846e-05
-3.61327e-06
-5.49971e-05
-3.35299e-06
-4.61252e-05
-2.18871e-06
-4.06858e-05
-1.90248e-06
-4.59706e-05
-1.4511e-06
-4.99251e-05
-1.30456e-06
-4.47787e-05
-1.07347e-06
-4.59587e-05
-9.15827e-07
-4.59951e-05
-1.01154e-06
-3.9643e-05
-7.98675e-07
-4.22214e-05
-7.7798e-07
-5.27679e-05
-7.37487e-07
-4.1741e-05
3.6513e-08
-3.45577e-05
6.78647e-07
-3.38321e-05
7.42933e-07
-3.25987e-05
7.87398e-07
-3.17424e-05
4.28937e-07
-3.06493e-05
8.09e-08
-3.01784e-05
-1.562e-07
-3.04063e-05
-2.64736e-07
-3.35551e-05
-4.40895e-07
-2.99889e-05
-3.90667e-07
-2.98707e-05
-4.11261e-07
-2.84165e-05
-4.25132e-07
-2.70978e-05
-3.65114e-07
-3.13922e-05
-3.28978e-07
-3.7324e-05
-3.53213e-07
-3.51756e-05
-3.5197e-07
-2.78486e-05
-3.14684e-07
-2.92437e-05
-2.38607e-07
-3.24478e-05
-2.72853e-07
-3.24883e-05
-2.49106e-07
-3.53965e-05
-2.86941e-07
-3.65109e-05
-3.21802e-07
-3.09276e-05
-2.89083e-07
-2.94535e-05
-2.76773e-07
-2.94856e-05
-2.67499e-07
-2.57513e-05
-2.53689e-07
-2.63423e-05
-2.37756e-07
-3.27904e-05
-3.06987e-07
-4.04914e-05
-3.1628e-07
-3.37878e-05
-3.35491e-07
-3.20579e-05
-3.14668e-07
-3.58825e-05
-3.64655e-07
-3.05395e-05
-4.47632e-07
-2.71512e-05
-3.8641e-07
-2.70264e-05
-4.7931e-07
-3.14326e-05
-7.31605e-07
-3.08808e-05
-1.39825e-06
-2.49003e-05
4.26394e-07
-2.39336e-05
4.92874e-07
-1.82687e-05
1.48647e-07
-2.05648e-05
4.61576e-08
-1.71153e-05
-4.76729e-08
-1.42933e-05
2.70491e-08
-1.51002e-05
-3.13769e-08
-1.42238e-05
-4.82275e-08
-1.38706e-05
-5.47841e-08
-1.355e-05
-9.67528e-08
-1.05684e-05
-6.22393e-08
-7.56403e-06
-3.14129e-08
-7.42538e-06
-3.48032e-08
-6.73439e-06
-1.03315e-07
-4.92133e-06
-6.12195e-08
-4.64992e-06
-9.19547e-08
-4.02421e-06
-9.91481e-08
-3.15559e-06
-8.05681e-08
-1.76345e-06
-7.76426e-08
-3.35184e-08
-4.30691e-05
-1.27029e-06
-5.14065e-05
-6.99714e-07
-6.14294e-05
-4.85392e-07
-4.81695e-05
-3.25232e-07
-4.50393e-05
-1.8935e-07
-4.73027e-05
-1.42318e-07
-4.42309e-05
-1.03514e-07
-4.33287e-05
-7.82875e-08
-4.24506e-05
-5.44934e-08
-4.43724e-05
-4.39546e-08
-5.25795e-05
-3.60025e-08
-5.55304e-05
-3.39938e-08
-5.88258e-05
-3.12537e-08
-5.13096e-05
-3.35656e-08
-4.65623e-05
-3.08566e-08
-5.72431e-05
-3.72383e-08
-6.07637e-05
-5.01241e-08
-6.08316e-05
-6.49046e-08
-5.29077e-05
-9.85022e-08
-4.37986e-05
-1.03547e-07
-4.29967e-05
-1.37436e-07
-4.95186e-05
-2.28651e-07
-5.53231e-05
-2.95989e-07
-6.09268e-05
-5.91067e-07
-5.72708e-05
-2.56077e-06
-4.94844e-05
-4.41081e-06
-5.41504e-05
-4.87022e-06
-5.28395e-05
-4.58811e-06
-4.97082e-05
-3.38498e-06
-4.73385e-05
-3.41462e-06
-4.34037e-05
-2.4228e-06
-4.83974e-05
-2.34449e-06
-4.17287e-05
-2.10633e-06
-4.02655e-05
-1.60512e-06
-4.26099e-05
-1.47757e-06
-3.47415e-05
-1.05512e-06
-3.2296e-05
-6.43957e-07
-3.21365e-05
-5.13038e-07
-3.83694e-05
-4.0066e-07
-4.15513e-05
-5.07624e-07
-4.00906e-05
-3.94898e-07
-4.49826e-05
-4.93857e-07
-4.62951e-05
-3.47447e-07
-4.18375e-05
-1.07318e-07
-3.2899e-05
1.73835e-07
-3.5675e-05
3.21183e-07
-4.22423e-05
1.53133e-07
-3.18195e-05
3.34845e-08
-2.93512e-05
-5.97283e-08
-3.66744e-05
-2.8282e-07
-3.73601e-05
-4.2342e-07
-2.95962e-05
-3.99368e-07
-2.86363e-05
-3.30961e-07
-3.25322e-05
-3.67192e-07
-3.34212e-05
-3.18147e-07
-3.07902e-05
-2.90233e-07
-2.85663e-05
-2.71828e-07
-2.9331e-05
-2.35486e-07
-3.09357e-05
-2.28409e-07
-2.87301e-05
-2.51202e-07
-2.56569e-05
-1.79305e-07
-2.57073e-05
-2.14447e-07
-2.7553e-05
-1.91281e-07
-3.29707e-05
-2.34123e-07
-3.21325e-05
-2.34318e-07
-3.21893e-05
-2.1112e-07
-3.05875e-05
-2.75408e-07
-2.71587e-05
-2.1575e-07
-2.6599e-05
-2.37702e-07
-2.99767e-05
-2.14079e-07
-3.07968e-05
-2.97194e-07
-2.67401e-05
-2.34712e-07
-2.87051e-05
-2.59652e-07
-3.02011e-05
-2.64286e-07
-3.45919e-05
-2.82228e-07
-3.67717e-05
-3.22475e-07
-3.28785e-05
-3.01587e-07
-3.05093e-05
-4.24133e-07
-3.32467e-05
-6.02987e-07
-3.50948e-05
-1.01841e-06
-2.8605e-05
-2.24302e-08
-2.17209e-05
8.03561e-07
-1.91027e-05
2.3455e-07
-1.81845e-05
4.78872e-10
-1.56123e-05
1.881e-08
-1.54452e-05
-3.03058e-08
-1.38123e-05
-5.67692e-08
-1.42635e-05
-4.54675e-08
-1.24874e-05
-1.10672e-07
-1.08964e-05
-3.7194e-08
-1.12453e-05
-3.9614e-08
-9.15217e-06
3.01912e-08
-7.91762e-06
-1.25267e-08
-6.00001e-06
3.6885e-09
-5.13009e-06
3.06447e-08
-4.17796e-06
-9.62455e-09
-3.43836e-06
-4.38793e-09
-2.87657e-06
2.88376e-08
-1.41433e-06
3.72404e-08
3.2815e-09
-5.80563e-05
-5.39763e-05
-5.15825e-05
-5.47644e-05
-5.20913e-05
-5.22411e-05
-5.85089e-05
-5.69245e-05
-5.69899e-05
-5.87178e-05
-5.54947e-05
-5.8794e-05
-5.88262e-05
-5.88588e-05
-5.41198e-05
-4.66029e-05
-4.5587e-05
-4.89844e-05
-4.67862e-05
-4.20119e-05
-5.05792e-05
-5.80612e-05
-5.53067e-05
-4.91557e-05
-4.12612e-05
-3.92748e-05
-3.68989e-05
-3.25502e-05
-3.40157e-05
-3.53655e-05
-3.22556e-05
-3.17411e-05
-3.45177e-05
-3.20978e-05
-2.62099e-05
-2.8685e-05
-3.44735e-05
-3.46549e-05
-2.90161e-05
-2.71165e-05
-2.96657e-05
-2.97274e-05
-2.96558e-05
-2.87216e-05
-3.08402e-05
-3.07993e-05
-2.81162e-05
-3.41572e-05
-2.81171e-05
-2.53533e-05
-2.4469e-05
-2.30212e-05
-2.58499e-05
-2.39819e-05
-2.18912e-05
-2.65703e-05
-2.89789e-05
-2.61241e-05
-2.92526e-05
-2.57108e-05
-2.65086e-05
-2.96618e-05
-2.98095e-05
-2.99314e-05
-2.69849e-05
-3.10908e-05
-3.31703e-05
-3.23085e-05
-3.14912e-05
-3.25929e-05
-3.37561e-05
-3.39146e-05
-3.30361e-05
-3.13039e-05
-2.97615e-05
-2.51684e-05
-2.65575e-05
-3.1296e-05
-3.01728e-05
-2.76763e-05
-2.95915e-05
-2.5846e-05
-1.8159e-05
-1.82292e-05
-1.74919e-05
-1.52004e-05
-1.40759e-05
-1.24909e-05
-9.95451e-06
-9.95608e-06
-1.1401e-05
-9.9682e-06
-7.2582e-06
-6.57121e-06
-5.81935e-06
-3.93842e-06
-3.24678e-06
-3.15922e-06
-1.70764e-06
)
;

boundaryField
{
    inlet
    {
        type            fixedValue;
        value           uniform 0;
    }
    outlet
    {
        type            calculated;
        value           nonuniform List<scalar> 10(4.84929e-05 6.48691e-05 4.87087e-05 5.62539e-05 5.02016e-05 6.22481e-05 6.58288e-05 5.74775e-05 4.37317e-05 5.48916e-05);
    }
    walls
    {
        type            fixedValue;
        value           uniform 0;
    }
}


// ************************************************************************* //
