/*--------------------------------*- C++ -*----------------------------------*\
| =========                 |                                                 |
| \\      /  F ield         | foam-extend: Open Source CFD                    |
|  \\    /   O peration     | Version:     5.0                                |
|   \\  /    A nd           | Web:         http://www.foam-extend.org         |
|    \\/     M anipulation  |                                                 |
\*---------------------------------------------------------------------------*/
FoamFile
{
    version     2.0;
    format      ascii;
    class       surfaceScalarField;
    location    "4000";
    object      phi.water;
}
// * * * * * * * * * * * * * * * * * * * * * * * * * * * * * * * * * * * * * //

dimensions      [0 3 -1 0 0 0 0];

internalField   nonuniform List<scalar> 
1890
(
0
0
0
0
0
0
0
0
0
0
0
0
0
0
0
0
0
0
0
0
0
0
0
0
0
0
0
0
0
0
0
0
0
0
0
0
0
0
0
0
0
0
0
0
0
0
0
0
0
0
0
0
0
0
0
0
0
0
0
0
0
0
0
0
0
0
0
0
0
0
0
0
0
0
0
0
0
0
0
0
0
0
0
0
0
0
0
0
0
0
0
0
0
0
0
0
0
0
0
0
0
0
0
0
0
0
0
0
0
0
0
0
0
0
0
0
0
0
0
0
0
0
0
0
0
0
0
0
0
0
0
0
0
0
0
0
0
0
0
0
0
0
0
0
0
0
0
0
2.03106e-29
0
-1.28287e-12
-7.62629e-31
-2.6532e-08
4.07252e-14
-3.73764e-06
4.52208e-10
-2.37569e-05
2.92566e-08
-4.81002e-05
1.14313e-06
-5.01741e-05
2.29683e-06
-5.07792e-05
1.47415e-06
-5.5364e-05
3.75007e-07
-5.80969e-05
-8.82865e-08
-5.02516e-05
-2.8252e-07
-5.15482e-05
-3.22921e-07
-4.80441e-05
-4.98055e-07
-4.24856e-05
-3.22285e-07
-4.29338e-05
-3.30283e-07
-4.93661e-05
-3.63473e-07
-5.25145e-05
-5.90569e-07
-4.28774e-05
-5.35337e-07
-4.32829e-05
-4.87979e-07
-4.83667e-05
-6.31816e-07
-4.46817e-05
-7.02272e-07
-3.93446e-05
-6.21362e-07
-3.64399e-05
-5.83652e-07
-4.10667e-05
-5.26121e-07
-4.52512e-05
-1.03112e-06
-1.15643e-06
0
0
0
0
0
0
0
0
0
0
0
0
0
0
0
0
0
0
0
0
0
0
0
0
0
0
0
0
0
0
0
0
0
0
0
0
0
0
0
0
0
0
0
0
0
0
0
0
0
0
0
0
0
0
0
0
0
0
0
0
0
0
0
0
0
0
0
0
0
0
0
0
0
0
0
0
0
0
0
0
0
0
0
0
0
0
0
0
0
0
0
0
0
0
0
0
0
0
0
0
0
0
0
0
0
0
0
0
0
0
0
0
0
0
0
0
0
0
0
0
0
0
0
0
0
0
0
0
0
0
0
0
0
0
0
0
0
0
0
0
0
0
0
0
0
0
0
0
0
0
8.19323e-19
0
-4.03481e-10
-2.20857e-20
-5.18493e-07
5.57236e-12
-9.35958e-06
-2.84875e-13
-4.84253e-05
3.85806e-07
-4.99789e-05
5.3444e-06
-4.17564e-05
2.57479e-06
-4.6112e-05
9.2605e-07
-5.5965e-05
2.46459e-08
-4.45032e-05
-3.65524e-07
-4.18774e-05
-3.26442e-07
-4.80816e-05
-5.06673e-07
-5.17447e-05
-5.96416e-07
-4.55986e-05
-7.02523e-07
-3.8278e-05
-5.25263e-07
-3.64245e-05
-5.15315e-07
-4.15047e-05
-4.78145e-07
-5.20627e-05
-7.62624e-07
-4.95039e-05
-9.66268e-07
-4.23421e-05
-8.61323e-07
-4.27206e-05
-7.48009e-07
-4.65323e-05
-7.98978e-07
-4.8054e-05
-9.65582e-07
-4.3625e-05
-1.14035e-06
-1.2099e-06
0
0
0
0
0
0
0
0
0
0
0
0
0
0
0
0
0
0
0
0
0
0
0
0
0
0
0
0
0
0
0
0
0
0
0
0
0
0
0
0
0
0
0
0
0
0
0
0
0
0
0
0
0
0
0
0
0
0
0
0
0
0
0
0
0
0
0
0
0
0
0
0
0
0
0
0
0
0
0
0
0
0
0
0
0
0
0
0
0
0
0
0
0
0
0
0
0
0
0
0
0
0
0
0
0
0
0
0
0
0
0
0
0
0
0
0
0
0
0
0
0
0
0
0
0
0
0
0
0
0
0
0
0
0
0
0
0
0
0
0
0
0
0
0
0
0
0
0
0
0
0
0
7.18694e-17
0
-1.23628e-09
-1.83288e-18
-6.91833e-07
1.74583e-11
-1.32199e-05
9.95392e-09
-3.51771e-05
3.52313e-07
-4.38644e-05
1.07423e-06
-4.01222e-05
5.94585e-07
-3.8784e-05
1.03505e-07
-4.34137e-05
-1.27048e-07
-4.2044e-05
-3.29889e-07
-3.75362e-05
-3.89923e-07
-3.83808e-05
-4.17256e-07
-3.80422e-05
-4.95687e-07
-4.38514e-05
-4.50347e-07
-5.2386e-05
-7.78613e-07
-4.6005e-05
-8.39791e-07
-4.41669e-05
-8.06484e-07
-4.59081e-05
-9.63957e-07
-4.50129e-05
-1.10687e-06
-3.75533e-05
-9.75818e-07
-3.88774e-05
-8.50592e-07
-4.07224e-05
-1.07732e-06
-3.41676e-05
-8.82016e-07
-7.19405e-07
0
0
0
0
0
0
0
0
0
0
0
0
0
0
0
0
0
0
0
0
0
0
0
0
0
0
0
0
0
0
0
0
0
0
0
0
0
0
0
0
0
0
0
0
0
0
0
0
0
0
0
0
0
0
0
0
0
0
0
0
0
0
0
0
0
0
0
0
0
0
0
0
0
0
0
0
0
0
0
0
0
0
0
0
0
0
0
0
0
0
0
0
0
0
0
0
0
0
0
0
0
0
0
0
0
0
0
0
0
0
0
0
0
0
0
0
0
0
0
0
0
0
0
0
0
0
0
0
0
0
0
0
0
0
0
0
0
0
0
0
0
0
0
0
0
0
0
0
0
0
0
0
5.48508e-19
-3.94067e-39
-4.3995e-10
-4.02019e-14
-4.44195e-07
-1.79941e-09
-1.47111e-05
-1.65862e-07
-3.57472e-05
-7.25442e-07
-4.04345e-05
-8.68196e-07
-4.01202e-05
-3.60465e-07
-4.15761e-05
-1.85866e-07
-3.85558e-05
-2.13373e-07
-3.73079e-05
-2.23926e-07
-3.71494e-05
-3.10489e-07
-3.63538e-05
-3.25469e-07
-3.86677e-05
-3.8865e-07
-4.5665e-05
-4.64466e-07
-5.37421e-05
-7.02128e-07
-4.20747e-05
-8.52185e-07
-3.5531e-05
-6.79923e-07
-4.03416e-05
-8.13099e-07
-3.95303e-05
-9.85697e-07
-4.22086e-05
-9.01101e-07
-4.57725e-05
-1.11621e-06
-4.21628e-05
-1.04611e-06
-3.66712e-05
-9.7962e-07
-4.5501e-07
0
0
0
0
0
0
0
0
0
0
0
0
0
0
0
0
0
0
0
0
0
0
0
0
0
0
0
0
0
0
0
0
0
0
0
0
0
0
0
0
0
0
0
0
0
0
0
0
0
0
0
0
0
0
0
0
0
0
0
0
0
0
0
0
0
0
0
0
0
0
0
0
0
0
0
0
0
0
0
0
0
0
0
0
0
0
0
0
0
0
0
0
0
0
0
0
0
0
0
0
0
0
0
0
0
0
0
0
0
0
0
0
0
0
0
0
0
0
0
0
0
0
0
0
0
0
0
0
0
0
0
0
0
0
0
0
0
0
0
0
0
0
0
0
0
0
0
0
0
0
5.37219e-30
0
-6.2034e-13
-1.9191e-31
-2.81144e-08
2.15392e-14
-3.14011e-06
8.49201e-10
-2.09567e-05
8.24541e-08
-3.97564e-05
9.9476e-07
-4.02053e-05
1.56291e-06
-4.68689e-05
5.61427e-07
-5.67604e-05
-4.34776e-08
-5.26538e-05
-3.39449e-07
-5.25746e-05
-3.84374e-07
-4.61645e-05
-5.14743e-07
-4.50425e-05
-4.19102e-07
-5.25672e-05
-6.03034e-07
-4.37491e-05
-6.9907e-07
-3.60947e-05
-5.66771e-07
-3.52034e-05
-5.39823e-07
-3.90233e-05
-6.07756e-07
-4.0254e-05
-7.87093e-07
-4.07419e-05
-8.2048e-07
-3.87628e-05
-9.33686e-07
-3.54993e-05
-8.37891e-07
-3.92783e-05
-8.02396e-07
-4.51232e-05
-9.48592e-07
-9.89044e-07
0
0
0
0
0
0
0
0
0
0
0
0
0
0
0
0
0
0
0
0
0
0
0
0
0
0
0
0
0
0
0
0
0
0
0
0
0
0
0
0
0
0
0
0
0
0
0
0
0
0
0
0
0
0
0
0
0
0
0
0
0
0
0
0
0
0
0
0
0
0
0
0
0
0
0
0
0
0
0
0
0
0
0
0
0
0
0
0
0
0
0
0
0
0
0
0
0
0
0
0
0
0
0
0
0
0
0
0
0
0
0
0
0
0
0
0
0
0
0
0
0
0
0
0
0
0
0
0
0
0
0
0
0
0
0
0
0
0
0
0
0
0
0
0
0
0
0
0
0
0
0
0
1.00167e-20
0
-1.94259e-10
-3.93594e-22
-2.29387e-07
1.39511e-12
-1.36384e-05
-1.64958e-09
-2.97575e-05
8.6675e-08
-3.75358e-05
-2.94246e-07
-3.75952e-05
1.79742e-07
-4.07099e-05
7.64159e-08
-4.55557e-05
-2.02724e-07
-4.3935e-05
-3.91267e-07
-4.08062e-05
-3.89226e-07
-3.96256e-05
-3.89589e-07
-4.143e-05
-4.13044e-07
-4.5483e-05
-5.13538e-07
-4.50842e-05
-5.88523e-07
-4.46751e-05
-6.08316e-07
-4.17277e-05
-6.88608e-07
-3.65666e-05
-6.80978e-07
-3.37834e-05
-6.57723e-07
-3.64535e-05
-6.18213e-07
-4.02477e-05
-7.19697e-07
-4.39547e-05
-7.15849e-07
-4.79999e-05
-1.00894e-06
-1.2542e-06
0
0
0
0
0
0
0
0
0
0
0
0
0
0
0
0
0
0
0
0
0
0
0
0
0
0
0
0
0
0
0
0
0
0
0
0
0
0
0
0
0
0
0
0
0
0
0
0
0
0
0
0
0
0
0
0
0
0
0
0
0
0
0
0
0
0
0
0
0
0
0
0
0
0
0
0
0
0
0
0
0
0
0
0
0
0
0
0
0
0
0
0
0
0
0
0
0
0
0
0
0
0
0
0
0
0
0
0
0
0
0
0
0
0
0
0
0
0
0
0
0
0
0
0
0
0
0
0
0
0
0
0
0
0
0
0
0
0
0
0
0
0
0
0
0
0
0
0
0
0
0
0
1.73978e-21
-1.17006e-40
-9.83862e-11
-2.69838e-14
-2.89664e-07
-9.35315e-10
-8.35767e-06
-2.151e-07
-4.31475e-05
-8.09376e-07
-5.32726e-05
-1.48432e-06
-4.2232e-05
-7.05294e-07
-3.69632e-05
-3.89705e-07
-3.62019e-05
-2.58756e-07
-3.55869e-05
-2.73027e-07
-3.71339e-05
-3.06863e-07
-3.77201e-05
-3.57463e-07
-3.67864e-05
-3.67862e-07
-4.32635e-05
-4.33201e-07
-4.88744e-05
-6.65624e-07
-4.01063e-05
-6.44057e-07
-3.62787e-05
-5.74185e-07
-3.66071e-05
-6.6768e-07
-3.77042e-05
-6.57873e-07
-3.96735e-05
-7.95875e-07
-3.97301e-05
-8.79861e-07
-3.87298e-05
-8.61281e-07
-3.66941e-05
-9.12974e-07
-8.71391e-07
0
0
0
0
0
0
0
0
0
0
0
0
0
0
0
0
0
0
0
0
0
0
0
0
0
0
0
0
0
0
0
0
0
0
0
0
0
0
0
0
0
0
0
0
0
0
0
0
0
0
0
0
0
0
0
0
0
0
0
0
0
0
0
0
0
0
0
0
0
0
0
0
0
0
0
0
0
0
0
0
0
0
0
0
0
0
0
0
0
0
0
0
0
0
0
0
0
0
0
0
0
0
0
0
0
0
0
0
0
0
0
0
0
0
0
0
0
0
0
0
0
0
0
0
0
0
0
0
0
0
0
0
0
0
0
0
0
0
0
0
0
0
0
0
0
0
0
0
0
0
3.904e-31
0
-4.15255e-13
-1.51205e-32
-1.42801e-08
1.48121e-14
-3.62609e-06
3.64161e-10
-1.91808e-05
5.6962e-08
-4.94847e-05
1.01077e-06
-4.19721e-05
2.08648e-06
-4.2377e-05
4.77473e-07
-5.08453e-05
8.5506e-08
-4.48535e-05
-1.85642e-07
-4.30318e-05
-1.58663e-07
-4.83145e-05
-2.85396e-07
-4.93058e-05
-3.64461e-07
-5.179e-05
-4.91546e-07
-5.44658e-05
-5.47471e-07
-4.51305e-05
-6.69279e-07
-3.70313e-05
-4.12441e-07
-4.2458e-05
-4.03224e-07
-4.15086e-05
-6.16252e-07
-3.81894e-05
-5.03457e-07
-4.35388e-05
-6.87265e-07
-4.77575e-05
-8.38853e-07
-4.95438e-05
-9.87209e-07
-4.49322e-05
-1.02186e-06
-1.0634e-06
0
0
0
0
0
0
0
0
0
0
0
0
0
0
0
0
0
0
0
0
0
0
0
0
0
0
0
0
0
0
0
0
0
0
0
0
0
0
0
0
0
0
0
0
0
0
0
0
0
0
0
0
0
0
0
0
0
0
0
0
0
0
0
0
0
0
0
0
0
0
0
0
0
0
0
0
0
0
0
0
0
0
0
0
0
0
0
0
0
0
0
0
0
0
0
0
0
0
0
0
0
0
0
0
0
0
0
0
0
0
0
0
0
0
0
0
0
0
0
0
0
0
0
0
0
0
0
0
0
0
0
0
0
0
0
0
0
0
0
0
0
0
0
0
0
0
0
0
0
0
0
0
7.82689e-22
0
-7.75677e-11
-2.4493e-23
-2.57885e-07
1.94985e-12
-7.61408e-06
3.50583e-09
-3.18511e-05
1.96396e-07
-3.78417e-05
9.55205e-07
-4.16029e-05
6.16098e-07
-4.06443e-05
2.51117e-08
-4.01837e-05
-1.14881e-07
-4.26945e-05
-2.11046e-07
-4.13955e-05
-3.0832e-07
-4.70552e-05
-3.56392e-07
-4.26652e-05
-5.72993e-07
-4.2843e-05
-4.42804e-07
-4.55537e-05
-6.4411e-07
-4.19283e-05
-4.49601e-07
-3.92098e-05
-5.35089e-07
-3.46397e-05
-4.88161e-07
-3.48876e-05
-4.86495e-07
-3.42051e-05
-5.86079e-07
-3.77705e-05
-6.47367e-07
-3.86216e-05
-8.83841e-07
-3.59654e-05
-6.999e-07
-8.15719e-07
0
0
0
0
0
0
0
0
0
0
0
0
0
0
0
0
0
0
0
0
0
0
0
0
0
0
0
0
0
0
0
0
0
0
0
0
0
0
0
0
0
0
0
0
0
0
0
0
0
0
0
0
0
0
0
0
0
0
0
0
0
0
0
0
0
0
0
0
0
0
0
0
0
0
0
0
1.74758e-30
-6.43846e-13
-1.6758e-08
-2.25177e-06
-2.95765e-05
-3.50477e-05
-3.69424e-05
-3.97188e-05
-4.12874e-05
-3.91244e-05
-4.03065e-05
-3.80797e-05
-3.41834e-05
-3.83609e-05
-4.74024e-05
-4.42836e-05
-3.6845e-05
-3.95124e-05
-3.88479e-05
-3.34263e-05
-3.92112e-05
-4.69379e-05
-4.19594e-05
)
;

boundaryField
{
    inlet
    {
        type            fixedValue;
        value           nonuniform List<scalar> 10(-5e-05 -5e-05 -5e-05 -5e-05 -5e-05 -5e-05 -5e-05 -5e-05 -5e-05 -5e-05);
    }
    outlet
    {
        type            calculated;
        value           uniform 0;
    }
    walls
    {
        type            fixedValue;
        value           uniform 0;
    }
}


// ************************************************************************* //
