/*--------------------------------*- C++ -*----------------------------------*\
| =========                 |                                                 |
| \\      /  F ield         | foam-extend: Open Source CFD                    |
|  \\    /   O peration     | Version:     5.0                                |
|   \\  /    A nd           | Web:         http://www.foam-extend.org         |
|    \\/     M anipulation  |                                                 |
\*---------------------------------------------------------------------------*/
FoamFile
{
    version     2.0;
    format      ascii;
    class       volScalarField;
    location    "4000";
    object      S.gas;
}
// * * * * * * * * * * * * * * * * * * * * * * * * * * * * * * * * * * * * * //

dimensions      [0 0 0 0 0 0 0];

internalField   nonuniform List<scalar> 
1000
(
0
0
0
0
0
0
0
0
0
0
0
0
0
0
0
0
0
0
0
0
0
0
0
0
0
0
0
0
0
0
0
0
0
0
0
0
0
0
0
3.4068e-314
3.91458e-154
2.05735e-80
2.14243e-40
8.23971e-23
4.91717e-16
1.0669e-10
1.16004e-07
2.69387e-06
1.44782e-05
5.15351e-05
8.91602e-05
0.000157592
0.000214124
0.00029483
0.000454463
0.000460729
0.000765502
0.00128256
0.0124736
0.0406502
0.0627185
0.0738686
0.079991
0.0839308
0.085936
0.0876635
0.0892749
0.0909056
0.0925182
0.0941949
0.0959055
0.0976663
0.0994205
0.10128
0.103157
0.105092
0.107094
0.10917
0.109156
0.0982725
0.0902442
0.0936391
0.0985715
0.10315
0.10702
0.111014
0.115566
0.119662
0.124776
0.129928
0.135577
0.140714
0.146828
0.153999
0.161193
0.168939
0.178309
0.189357
0.20292
0.216377
0
0
0
0
0
0
0
0
0
0
0
0
0
0
0
0
0
0
0
0
0
0
0
0
0
0
0
0
0
0
0
0
0
0
0
0
0
0
9.16554e-218
1.00479e-100
8.69793e-51
1.0009e-27
1.21853e-15
3.57161e-10
6.08514e-07
0.000268006
0.00669742
0.0317153
0.0623793
0.0836266
0.0984366
0.106055
0.11028
0.112663
0.115068
0.117311
0.119667
0.122061
0.124143
0.126059
0.128401
0.130796
0.132876
0.134688
0.136284
0.137781
0.139289
0.140706
0.142175
0.143627
0.145068
0.146463
0.147823
0.149117
0.1504
0.151639
0.152767
0.153609
0.153222
0.143076
0.125218
0.127402
0.133122
0.139756
0.143802
0.147566
0.152466
0.156461
0.160479
0.164282
0.169084
0.174169
0.179839
0.18469
0.189347
0.194942
0.201675
0.208373
0.215512
0.223067
0
0
0
0
0
0
0
0
0
0
0
0
0
0
0
0
0
0
0
0
0
0
0
0
0
0
0
0
0
0
0
0
1.74835e-192
6.67905e-205
1.03185e-216
1.92547e-220
1.03847e-212
0
2.6408e-68
4.70579e-34
8.00882e-19
1.17419e-11
9.77672e-07
0.000491398
0.0129206
0.0543609
0.0912519
0.116712
0.133632
0.142491
0.146978
0.149862
0.151837
0.153438
0.154733
0.155808
0.156782
0.157741
0.158622
0.159472
0.160376
0.161404
0.16244
0.16342
0.164354
0.165214
0.166032
0.16685
0.167638
0.168404
0.169112
0.169769
0.170424
0.171061
0.171583
0.172058
0.172409
0.172594
0.172566
0.17131
0.158058
0.141562
0.143074
0.147678
0.153212
0.157439
0.161026
0.164918
0.169074
0.172765
0.177132
0.180116
0.183535
0.187481
0.191489
0.195598
0.200343
0.207236
0.212719
0.22106
0
0
0
0
0
0
0
0
0
0
0
0
0
0
0
0
0
0
0
0
0
0
0
0
0
0
0
1.23452e-180
0
0
6.86616e-173
3.88661e-68
1.1559e-66
6.89975e-71
7.72074e-75
3.78718e-76
1.42365e-73
0
2.30304e-23
1.12071e-13
2.3282e-08
8.07784e-05
0.00453764
0.0347723
0.085427
0.11368
0.138908
0.149124
0.157191
0.162377
0.166425
0.168137
0.169909
0.171029
0.171898
0.172508
0.172985
0.173408
0.173815
0.174203
0.174614
0.175046
0.175464
0.175892
0.176295
0.176663
0.177021
0.177326
0.177628
0.177886
0.178119
0.17836
0.17857
0.178739
0.178895
0.178959
0.179015
0.178969
0.178934
0.178384
0.167225
0.148453
0.144418
0.149085
0.153904
0.157862
0.162242
0.165969
0.169943
0.173729
0.177294
0.180087
0.182825
0.187552
0.192311
0.196618
0.202596
0.20731
0.213683
0.221006
0
0
0
0
0
0
0
0
0
0
0
0
0
0
0
0
0
0
0
0
0
0
0
0
0
0
0
0
0
0
0
2.09469e-25
6.58256e-25
2.2815e-26
1.04888e-27
4.41839e-28
3.16472e-27
0
3.24078e-10
9.22631e-06
0.00184949
0.0215121
0.0702227
0.115541
0.137473
0.149955
0.158812
0.164762
0.16958
0.172192
0.17394
0.175697
0.176731
0.177665
0.178175
0.178596
0.178937
0.17917
0.179366
0.179533
0.179685
0.179818
0.179946
0.18005
0.180147
0.180237
0.180304
0.180355
0.180395
0.180457
0.180507
0.180552
0.180603
0.180658
0.180715
0.180771
0.180822
0.180865
0.180876
0.177996
0.159981
0.14645
0.149212
0.154812
0.158221
0.161062
0.164227
0.166716
0.170312
0.172907
0.175514
0.179263
0.183656
0.18827
0.192399
0.197415
0.202247
0.208981
0.216879
0.225107
0
0
0
0
0
0
0
0
0
0
0
0
0
0
0
0
0
0
0
0
0
0
3.41718e-296
4.09708e-151
2.14112e-76
0
1.77674e-19
9.41553e-15
1.51583e-13
2.1878e-12
6.48288e-12
3.8188e-11
5.16866e-11
1.43603e-11
4.65262e-12
2.82205e-12
5.58803e-12
3.35553e-12
4.63746e-12
1.49347e-11
2.81895e-07
0.000156486
0.00639141
0.0318549
0.0768796
0.116834
0.134179
0.151142
0.158451
0.16508
0.170602
0.174667
0.177396
0.178691
0.17955
0.180276
0.180658
0.181018
0.181253
0.181394
0.181486
0.181547
0.181578
0.181587
0.181579
0.181554
0.181526
0.181493
0.181465
0.181463
0.18147
0.181483
0.181519
0.181573
0.181635
0.181715
0.181804
0.181891
0.181995
0.181754
0.171491
0.152869
0.147089
0.151937
0.156988
0.160739
0.163822
0.167295
0.170739
0.174364
0.177621
0.180879
0.184489
0.188103
0.192616
0.198129
0.204728
0.210892
0.218275
0.22555
0
0
0
0
0
0
0
0
0
0
0
0
0
0
0
0
0
0
0
0
0
1.76945e-200
4.86438e-92
1.1499e-48
1.01366e-24
1.85085e-13
2.1565e-09
3.8929e-07
1.40006e-06
5.20317e-06
9.52092e-06
2.63713e-05
3.57928e-05
2.22684e-05
1.33197e-05
1.11393e-05
1.5247e-05
1.06429e-05
1.24014e-05
1.45104e-05
7.9423e-06
5.21645e-06
1.38089e-05
0.00101279
0.0164667
0.0624291
0.0994808
0.131683
0.146719
0.158885
0.166698
0.17128
0.174689
0.177888
0.179404
0.180216
0.181113
0.18165
0.181921
0.182134
0.182272
0.18234
0.182352
0.182335
0.182315
0.182271
0.182236
0.182177
0.18213
0.182073
0.182008
0.181937
0.181855
0.181771
0.181666
0.181564
0.181393
0.181253
0.181045
0.180534
0.171434
0.148636
0.144735
0.147395
0.152548
0.15722
0.16159
0.16562
0.169142
0.172833
0.176619
0.179325
0.182525
0.186959
0.191615
0.196811
0.2021
0.207745
0.21434
0.222483
0
0
0
0
0
0
0
0
0
0
0
0
0
0
0
0
0
0
0
0
0
2.14335e-60
3.47785e-30
8.44781e-18
3.95377e-10
2.16513e-06
0.000164207
0.0016432
0.00312147
0.00489017
0.00704248
0.0119705
0.0131948
0.0115703
0.010562
0.0101323
0.0111228
0.0101891
0.0101889
0.00955769
0.00790866
0.007627
0.016387
0.0442022
0.0770511
0.114678
0.134403
0.150994
0.159902
0.168266
0.172844
0.177058
0.17919
0.180909
0.182188
0.182942
0.183563
0.183873
0.183988
0.184023
0.184037
0.184018
0.183957
0.183885
0.183809
0.18373
0.183654
0.183568
0.183491
0.183408
0.183325
0.183247
0.183183
0.18312
0.183042
0.182973
0.182901
0.182813
0.182718
0.179417
0.161065
0.147526
0.149978
0.155612
0.159734
0.162906
0.167057
0.17017
0.173224
0.176148
0.178966
0.181655
0.185817
0.19059
0.194265
0.200009
0.205462
0.211119
0.216957
0.224065
0
0
0
0
0
0
0
0
0
0
0
0
0
0
0
0
0
0
0
0
0
3.39797e-20
4.23079e-12
1.23684e-07
0.000166884
0.00496619
0.0278118
0.0615505
0.0828033
0.10152
0.110256
0.119015
0.122205
0.122623
0.125995
0.12628
0.129411
0.134431
0.139535
0.145078
0.148628
0.153184
0.156327
0.159552
0.163569
0.170051
0.177343
0.182465
0.186614
0.191462
0.194142
0.195708
0.196922
0.198161
0.198568
0.198689
0.198582
0.198415
0.198097
0.197698
0.197238
0.196766
0.196264
0.195751
0.195236
0.194723
0.194216
0.193712
0.193217
0.192728
0.192248
0.191769
0.191304
0.190844
0.190387
0.189935
0.189476
0.189017
0.188542
0.187748
0.178986
0.156814
0.151442
0.156326
0.160243
0.164485
0.167635
0.170538
0.173535
0.175529
0.179141
0.181289
0.184695
0.187713
0.192043
0.196923
0.202189
0.208727
0.214238
0.223163
0
0
0
0
0
0
0
0
0
0
0
0
0
0
0
0
0
0
0
0
1.21913e-16
1.15451e-08
5.38811e-05
0.00389999
0.0302799
0.0876719
0.14195
0.180079
0.210495
0.235393
0.248548
0.262738
0.272374
0.280986
0.283944
0.289135
0.290866
0.290801
0.290258
0.290277
0.290403
0.290553
0.290179
0.29021
0.290621
0.292999
0.295471
0.299783
0.302955
0.305313
0.308612
0.309919
0.311498
0.311577
0.310827
0.309846
0.308323
0.306237
0.304147
0.301924
0.299626
0.297352
0.295017
0.292704
0.290369
0.288062
0.285752
0.283413
0.281083
0.278737
0.276401
0.274024
0.271652
0.269237
0.266828
0.264369
0.261882
0.259319
0.25648
0.253155
0.245217
0.216115
0.202413
0.205311
0.210108
0.213201
0.21545
0.217621
0.218764
0.220639
0.222495
0.223126
0.22317
0.224242
0.225926
0.226324
0.228198
0.23089
0.230752
0.231519
)
;

boundaryField
{
    inlet
    {
        type            calculated;
        value           uniform 0.5;
    }
    outlet
    {
        type            calculated;
        value           uniform 0;
    }
    walls
    {
        type            calculated;
        value           nonuniform List<scalar> 
2200
(
0
0
0
0
0
0
0
0
0
0
0
0
0
0
0
0
0
0
0
0
0
0
0
0
0
0
0
0
0
0
0
0
0
0
0
0
0
0
0
3.4068e-314
3.91458e-154
2.05735e-80
2.14243e-40
8.23971e-23
4.91717e-16
1.0669e-10
1.16004e-07
2.69387e-06
1.44782e-05
5.15351e-05
8.91602e-05
0.000157592
0.000214124
0.00029483
0.000454463
0.000460729
0.000765502
0.00128256
0.0124736
0.0406502
0.0627185
0.0738686
0.079991
0.0839308
0.085936
0.0876635
0.0892749
0.0909056
0.0925182
0.0941949
0.0959055
0.0976663
0.0994205
0.10128
0.103157
0.105092
0.107094
0.10917
0.109156
0.0982725
0.0902442
0.0936391
0.0985715
0.10315
0.10702
0.111014
0.115566
0.119662
0.124776
0.129928
0.135577
0.140714
0.146828
0.153999
0.161193
0.168939
0.178309
0.189357
0.20292
0.216377
0
0
0
0
0
0
0
0
0
0
0
0
0
0
0
0
0
0
0
0
0
0
0
0
0
0
0
0
0
0
0
0
0
0
0
0
0
0
9.16554e-218
1.00479e-100
8.69793e-51
1.0009e-27
1.21853e-15
3.57161e-10
6.08514e-07
0.000268006
0.00669742
0.0317153
0.0623793
0.0836266
0.0984366
0.106055
0.11028
0.112663
0.115068
0.117311
0.119667
0.122061
0.124143
0.126059
0.128401
0.130796
0.132876
0.134688
0.136284
0.137781
0.139289
0.140706
0.142175
0.143627
0.145068
0.146463
0.147823
0.149117
0.1504
0.151639
0.152767
0.153609
0.153222
0.143076
0.125218
0.127402
0.133122
0.139756
0.143802
0.147566
0.152466
0.156461
0.160479
0.164282
0.169084
0.174169
0.179839
0.18469
0.189347
0.194942
0.201675
0.208373
0.215512
0.223067
0
0
0
0
0
0
0
0
0
0
0
0
0
0
0
0
0
0
0
0
0
0
0
0
0
0
0
0
0
0
0
0
1.74835e-192
6.67905e-205
1.03185e-216
1.92547e-220
1.03847e-212
0
2.6408e-68
4.70579e-34
8.00882e-19
1.17419e-11
9.77672e-07
0.000491398
0.0129206
0.0543609
0.0912519
0.116712
0.133632
0.142491
0.146978
0.149862
0.151837
0.153438
0.154733
0.155808
0.156782
0.157741
0.158622
0.159472
0.160376
0.161404
0.16244
0.16342
0.164354
0.165214
0.166032
0.16685
0.167638
0.168404
0.169112
0.169769
0.170424
0.171061
0.171583
0.172058
0.172409
0.172594
0.172566
0.17131
0.158058
0.141562
0.143074
0.147678
0.153212
0.157439
0.161026
0.164918
0.169074
0.172765
0.177132
0.180116
0.183535
0.187481
0.191489
0.195598
0.200343
0.207236
0.212719
0.22106
0
0
0
0
0
0
0
0
0
0
0
0
0
0
0
0
0
0
0
0
0
0
0
0
0
0
0
1.23452e-180
0
0
6.86616e-173
3.88661e-68
1.1559e-66
6.89975e-71
7.72074e-75
3.78718e-76
1.42365e-73
0
2.30304e-23
1.12071e-13
2.3282e-08
8.07784e-05
0.00453764
0.0347723
0.085427
0.11368
0.138908
0.149124
0.157191
0.162377
0.166425
0.168137
0.169909
0.171029
0.171898
0.172508
0.172985
0.173408
0.173815
0.174203
0.174614
0.175046
0.175464
0.175892
0.176295
0.176663
0.177021
0.177326
0.177628
0.177886
0.178119
0.17836
0.17857
0.178739
0.178895
0.178959
0.179015
0.178969
0.178934
0.178384
0.167225
0.148453
0.144418
0.149085
0.153904
0.157862
0.162242
0.165969
0.169943
0.173729
0.177294
0.180087
0.182825
0.187552
0.192311
0.196618
0.202596
0.20731
0.213683
0.221006
0
0
0
0
0
0
0
0
0
0
0
0
0
0
0
0
0
0
0
0
0
0
0
0
0
0
0
0
0
0
0
2.09469e-25
6.58256e-25
2.2815e-26
1.04888e-27
4.41839e-28
3.16472e-27
0
3.24078e-10
9.22631e-06
0.00184949
0.0215121
0.0702227
0.115541
0.137473
0.149955
0.158812
0.164762
0.16958
0.172192
0.17394
0.175697
0.176731
0.177665
0.178175
0.178596
0.178937
0.17917
0.179366
0.179533
0.179685
0.179818
0.179946
0.18005
0.180147
0.180237
0.180304
0.180355
0.180395
0.180457
0.180507
0.180552
0.180603
0.180658
0.180715
0.180771
0.180822
0.180865
0.180876
0.177996
0.159981
0.14645
0.149212
0.154812
0.158221
0.161062
0.164227
0.166716
0.170312
0.172907
0.175514
0.179263
0.183656
0.18827
0.192399
0.197415
0.202247
0.208981
0.216879
0.225107
0
0
0
0
0
0
0
0
0
0
0
0
0
0
0
0
0
0
0
0
0
0
3.41718e-296
4.09708e-151
2.14112e-76
0
1.77674e-19
9.41553e-15
1.51583e-13
2.1878e-12
6.48288e-12
3.8188e-11
5.16866e-11
1.43603e-11
4.65262e-12
2.82205e-12
5.58803e-12
3.35553e-12
4.63746e-12
1.49347e-11
2.81895e-07
0.000156486
0.00639141
0.0318549
0.0768796
0.116834
0.134179
0.151142
0.158451
0.16508
0.170602
0.174667
0.177396
0.178691
0.17955
0.180276
0.180658
0.181018
0.181253
0.181394
0.181486
0.181547
0.181578
0.181587
0.181579
0.181554
0.181526
0.181493
0.181465
0.181463
0.18147
0.181483
0.181519
0.181573
0.181635
0.181715
0.181804
0.181891
0.181995
0.181754
0.171491
0.152869
0.147089
0.151937
0.156988
0.160739
0.163822
0.167295
0.170739
0.174364
0.177621
0.180879
0.184489
0.188103
0.192616
0.198129
0.204728
0.210892
0.218275
0.22555
0
0
0
0
0
0
0
0
0
0
0
0
0
0
0
0
0
0
0
0
0
1.76945e-200
4.86438e-92
1.1499e-48
1.01366e-24
1.85085e-13
2.1565e-09
3.8929e-07
1.40006e-06
5.20317e-06
9.52092e-06
2.63713e-05
3.57928e-05
2.22684e-05
1.33197e-05
1.11393e-05
1.5247e-05
1.06429e-05
1.24014e-05
1.45104e-05
7.9423e-06
5.21645e-06
1.38089e-05
0.00101279
0.0164667
0.0624291
0.0994808
0.131683
0.146719
0.158885
0.166698
0.17128
0.174689
0.177888
0.179404
0.180216
0.181113
0.18165
0.181921
0.182134
0.182272
0.18234
0.182352
0.182335
0.182315
0.182271
0.182236
0.182177
0.18213
0.182073
0.182008
0.181937
0.181855
0.181771
0.181666
0.181564
0.181393
0.181253
0.181045
0.180534
0.171434
0.148636
0.144735
0.147395
0.152548
0.15722
0.16159
0.16562
0.169142
0.172833
0.176619
0.179325
0.182525
0.186959
0.191615
0.196811
0.2021
0.207745
0.21434
0.222483
0
0
0
0
0
0
0
0
0
0
0
0
0
0
0
0
0
0
0
0
0
2.14335e-60
3.47785e-30
8.44781e-18
3.95377e-10
2.16513e-06
0.000164207
0.0016432
0.00312147
0.00489017
0.00704248
0.0119705
0.0131948
0.0115703
0.010562
0.0101323
0.0111228
0.0101891
0.0101889
0.00955769
0.00790866
0.007627
0.016387
0.0442022
0.0770511
0.114678
0.134403
0.150994
0.159902
0.168266
0.172844
0.177058
0.17919
0.180909
0.182188
0.182942
0.183563
0.183873
0.183988
0.184023
0.184037
0.184018
0.183957
0.183885
0.183809
0.18373
0.183654
0.183568
0.183491
0.183408
0.183325
0.183247
0.183183
0.18312
0.183042
0.182973
0.182901
0.182813
0.182718
0.179417
0.161065
0.147526
0.149978
0.155612
0.159734
0.162906
0.167057
0.17017
0.173224
0.176148
0.178966
0.181655
0.185817
0.19059
0.194265
0.200009
0.205462
0.211119
0.216957
0.224065
0
0
0
0
0
0
0
0
0
0
0
0
0
0
0
0
0
0
0
0
0
3.39797e-20
4.23079e-12
1.23684e-07
0.000166884
0.00496619
0.0278118
0.0615505
0.0828033
0.10152
0.110256
0.119015
0.122205
0.122623
0.125995
0.12628
0.129411
0.134431
0.139535
0.145078
0.148628
0.153184
0.156327
0.159552
0.163569
0.170051
0.177343
0.182465
0.186614
0.191462
0.194142
0.195708
0.196922
0.198161
0.198568
0.198689
0.198582
0.198415
0.198097
0.197698
0.197238
0.196766
0.196264
0.195751
0.195236
0.194723
0.194216
0.193712
0.193217
0.192728
0.192248
0.191769
0.191304
0.190844
0.190387
0.189935
0.189476
0.189017
0.188542
0.187748
0.178986
0.156814
0.151442
0.156326
0.160243
0.164485
0.167635
0.170538
0.173535
0.175529
0.179141
0.181289
0.184695
0.187713
0.192043
0.196923
0.202189
0.208727
0.214238
0.223163
0
0
0
0
0
0
0
0
0
0
0
0
0
0
0
0
0
0
0
0
1.21913e-16
1.15451e-08
5.38811e-05
0.00389999
0.0302799
0.0876719
0.14195
0.180079
0.210495
0.235393
0.248548
0.262738
0.272374
0.280986
0.283944
0.289135
0.290866
0.290801
0.290258
0.290277
0.290403
0.290553
0.290179
0.29021
0.290621
0.292999
0.295471
0.299783
0.302955
0.305313
0.308612
0.309919
0.311498
0.311577
0.310827
0.309846
0.308323
0.306237
0.304147
0.301924
0.299626
0.297352
0.295017
0.292704
0.290369
0.288062
0.285752
0.283413
0.281083
0.278737
0.276401
0.274024
0.271652
0.269237
0.266828
0.264369
0.261882
0.259319
0.25648
0.253155
0.245217
0.216115
0.202413
0.205311
0.210108
0.213201
0.21545
0.217621
0.218764
0.220639
0.222495
0.223126
0.22317
0.224242
0.225926
0.226324
0.228198
0.23089
0.230752
0.231519
0
0
0
0
0
0
0
0
0
0
0
0
0
0
0
0
0
0
0
0
0
0
0
0
0
0
0
0
0
0
0
0
0
0
0
0
0
0
0
3.4068e-314
3.91458e-154
2.05735e-80
2.14243e-40
8.23971e-23
4.91717e-16
1.0669e-10
1.16004e-07
2.69387e-06
1.44782e-05
5.15351e-05
8.91602e-05
0.000157592
0.000214124
0.00029483
0.000454463
0.000460729
0.000765502
0.00128256
0.0124736
0.0406502
0.0627185
0.0738686
0.079991
0.0839308
0.085936
0.0876635
0.0892749
0.0909056
0.0925182
0.0941949
0.0959055
0.0976663
0.0994205
0.10128
0.103157
0.105092
0.107094
0.10917
0.109156
0.0982725
0.0902442
0.0936391
0.0985715
0.10315
0.10702
0.111014
0.115566
0.119662
0.124776
0.129928
0.135577
0.140714
0.146828
0.153999
0.161193
0.168939
0.178309
0.189357
0.20292
0.216377
0
0
0
0
0
0
0
0
0
0
0
0
0
0
0
0
0
0
0
0
0
0
0
0
0
0
0
0
0
0
0
0
0
0
0
0
0
0
9.16554e-218
1.00479e-100
8.69793e-51
1.0009e-27
1.21853e-15
3.57161e-10
6.08514e-07
0.000268006
0.00669742
0.0317153
0.0623793
0.0836266
0.0984366
0.106055
0.11028
0.112663
0.115068
0.117311
0.119667
0.122061
0.124143
0.126059
0.128401
0.130796
0.132876
0.134688
0.136284
0.137781
0.139289
0.140706
0.142175
0.143627
0.145068
0.146463
0.147823
0.149117
0.1504
0.151639
0.152767
0.153609
0.153222
0.143076
0.125218
0.127402
0.133122
0.139756
0.143802
0.147566
0.152466
0.156461
0.160479
0.164282
0.169084
0.174169
0.179839
0.18469
0.189347
0.194942
0.201675
0.208373
0.215512
0.223067
0
0
0
0
0
0
0
0
0
0
0
0
0
0
0
0
0
0
0
0
0
0
0
0
0
0
0
0
0
0
0
0
1.74835e-192
6.67905e-205
1.03185e-216
1.92547e-220
1.03847e-212
0
2.6408e-68
4.70579e-34
8.00882e-19
1.17419e-11
9.77672e-07
0.000491398
0.0129206
0.0543609
0.0912519
0.116712
0.133632
0.142491
0.146978
0.149862
0.151837
0.153438
0.154733
0.155808
0.156782
0.157741
0.158622
0.159472
0.160376
0.161404
0.16244
0.16342
0.164354
0.165214
0.166032
0.16685
0.167638
0.168404
0.169112
0.169769
0.170424
0.171061
0.171583
0.172058
0.172409
0.172594
0.172566
0.17131
0.158058
0.141562
0.143074
0.147678
0.153212
0.157439
0.161026
0.164918
0.169074
0.172765
0.177132
0.180116
0.183535
0.187481
0.191489
0.195598
0.200343
0.207236
0.212719
0.22106
0
0
0
0
0
0
0
0
0
0
0
0
0
0
0
0
0
0
0
0
0
0
0
0
0
0
0
1.23452e-180
0
0
6.86616e-173
3.88661e-68
1.1559e-66
6.89975e-71
7.72074e-75
3.78718e-76
1.42365e-73
0
2.30304e-23
1.12071e-13
2.3282e-08
8.07784e-05
0.00453764
0.0347723
0.085427
0.11368
0.138908
0.149124
0.157191
0.162377
0.166425
0.168137
0.169909
0.171029
0.171898
0.172508
0.172985
0.173408
0.173815
0.174203
0.174614
0.175046
0.175464
0.175892
0.176295
0.176663
0.177021
0.177326
0.177628
0.177886
0.178119
0.17836
0.17857
0.178739
0.178895
0.178959
0.179015
0.178969
0.178934
0.178384
0.167225
0.148453
0.144418
0.149085
0.153904
0.157862
0.162242
0.165969
0.169943
0.173729
0.177294
0.180087
0.182825
0.187552
0.192311
0.196618
0.202596
0.20731
0.213683
0.221006
0
0
0
0
0
0
0
0
0
0
0
0
0
0
0
0
0
0
0
0
0
0
0
0
0
0
0
0
0
0
0
2.09469e-25
6.58256e-25
2.2815e-26
1.04888e-27
4.41839e-28
3.16472e-27
0
3.24078e-10
9.22631e-06
0.00184949
0.0215121
0.0702227
0.115541
0.137473
0.149955
0.158812
0.164762
0.16958
0.172192
0.17394
0.175697
0.176731
0.177665
0.178175
0.178596
0.178937
0.17917
0.179366
0.179533
0.179685
0.179818
0.179946
0.18005
0.180147
0.180237
0.180304
0.180355
0.180395
0.180457
0.180507
0.180552
0.180603
0.180658
0.180715
0.180771
0.180822
0.180865
0.180876
0.177996
0.159981
0.14645
0.149212
0.154812
0.158221
0.161062
0.164227
0.166716
0.170312
0.172907
0.175514
0.179263
0.183656
0.18827
0.192399
0.197415
0.202247
0.208981
0.216879
0.225107
0
0
0
0
0
0
0
0
0
0
0
0
0
0
0
0
0
0
0
0
0
0
3.41718e-296
4.09708e-151
2.14112e-76
0
1.77674e-19
9.41553e-15
1.51583e-13
2.1878e-12
6.48288e-12
3.8188e-11
5.16866e-11
1.43603e-11
4.65262e-12
2.82205e-12
5.58803e-12
3.35553e-12
4.63746e-12
1.49347e-11
2.81895e-07
0.000156486
0.00639141
0.0318549
0.0768796
0.116834
0.134179
0.151142
0.158451
0.16508
0.170602
0.174667
0.177396
0.178691
0.17955
0.180276
0.180658
0.181018
0.181253
0.181394
0.181486
0.181547
0.181578
0.181587
0.181579
0.181554
0.181526
0.181493
0.181465
0.181463
0.18147
0.181483
0.181519
0.181573
0.181635
0.181715
0.181804
0.181891
0.181995
0.181754
0.171491
0.152869
0.147089
0.151937
0.156988
0.160739
0.163822
0.167295
0.170739
0.174364
0.177621
0.180879
0.184489
0.188103
0.192616
0.198129
0.204728
0.210892
0.218275
0.22555
0
0
0
0
0
0
0
0
0
0
0
0
0
0
0
0
0
0
0
0
0
1.76945e-200
4.86438e-92
1.1499e-48
1.01366e-24
1.85085e-13
2.1565e-09
3.8929e-07
1.40006e-06
5.20317e-06
9.52092e-06
2.63713e-05
3.57928e-05
2.22684e-05
1.33197e-05
1.11393e-05
1.5247e-05
1.06429e-05
1.24014e-05
1.45104e-05
7.9423e-06
5.21645e-06
1.38089e-05
0.00101279
0.0164667
0.0624291
0.0994808
0.131683
0.146719
0.158885
0.166698
0.17128
0.174689
0.177888
0.179404
0.180216
0.181113
0.18165
0.181921
0.182134
0.182272
0.18234
0.182352
0.182335
0.182315
0.182271
0.182236
0.182177
0.18213
0.182073
0.182008
0.181937
0.181855
0.181771
0.181666
0.181564
0.181393
0.181253
0.181045
0.180534
0.171434
0.148636
0.144735
0.147395
0.152548
0.15722
0.16159
0.16562
0.169142
0.172833
0.176619
0.179325
0.182525
0.186959
0.191615
0.196811
0.2021
0.207745
0.21434
0.222483
0
0
0
0
0
0
0
0
0
0
0
0
0
0
0
0
0
0
0
0
0
2.14335e-60
3.47785e-30
8.44781e-18
3.95377e-10
2.16513e-06
0.000164207
0.0016432
0.00312147
0.00489017
0.00704248
0.0119705
0.0131948
0.0115703
0.010562
0.0101323
0.0111228
0.0101891
0.0101889
0.00955769
0.00790866
0.007627
0.016387
0.0442022
0.0770511
0.114678
0.134403
0.150994
0.159902
0.168266
0.172844
0.177058
0.17919
0.180909
0.182188
0.182942
0.183563
0.183873
0.183988
0.184023
0.184037
0.184018
0.183957
0.183885
0.183809
0.18373
0.183654
0.183568
0.183491
0.183408
0.183325
0.183247
0.183183
0.18312
0.183042
0.182973
0.182901
0.182813
0.182718
0.179417
0.161065
0.147526
0.149978
0.155612
0.159734
0.162906
0.167057
0.17017
0.173224
0.176148
0.178966
0.181655
0.185817
0.19059
0.194265
0.200009
0.205462
0.211119
0.216957
0.224065
0
0
0
0
0
0
0
0
0
0
0
0
0
0
0
0
0
0
0
0
0
3.39797e-20
4.23079e-12
1.23684e-07
0.000166884
0.00496619
0.0278118
0.0615505
0.0828033
0.10152
0.110256
0.119015
0.122205
0.122623
0.125995
0.12628
0.129411
0.134431
0.139535
0.145078
0.148628
0.153184
0.156327
0.159552
0.163569
0.170051
0.177343
0.182465
0.186614
0.191462
0.194142
0.195708
0.196922
0.198161
0.198568
0.198689
0.198582
0.198415
0.198097
0.197698
0.197238
0.196766
0.196264
0.195751
0.195236
0.194723
0.194216
0.193712
0.193217
0.192728
0.192248
0.191769
0.191304
0.190844
0.190387
0.189935
0.189476
0.189017
0.188542
0.187748
0.178986
0.156814
0.151442
0.156326
0.160243
0.164485
0.167635
0.170538
0.173535
0.175529
0.179141
0.181289
0.184695
0.187713
0.192043
0.196923
0.202189
0.208727
0.214238
0.223163
0
0
0
0
0
0
0
0
0
0
0
0
0
0
0
0
0
0
0
0
1.21913e-16
1.15451e-08
5.38811e-05
0.00389999
0.0302799
0.0876719
0.14195
0.180079
0.210495
0.235393
0.248548
0.262738
0.272374
0.280986
0.283944
0.289135
0.290866
0.290801
0.290258
0.290277
0.290403
0.290553
0.290179
0.29021
0.290621
0.292999
0.295471
0.299783
0.302955
0.305313
0.308612
0.309919
0.311498
0.311577
0.310827
0.309846
0.308323
0.306237
0.304147
0.301924
0.299626
0.297352
0.295017
0.292704
0.290369
0.288062
0.285752
0.283413
0.281083
0.278737
0.276401
0.274024
0.271652
0.269237
0.266828
0.264369
0.261882
0.259319
0.25648
0.253155
0.245217
0.216115
0.202413
0.205311
0.210108
0.213201
0.21545
0.217621
0.218764
0.220639
0.222495
0.223126
0.22317
0.224242
0.225926
0.226324
0.228198
0.23089
0.230752
0.231519
0
0
0
0
0
0
0
0
0
0
0
0
0
0
0
0
0
0
0
0
0
0
0
0
0
0
0
0
0
0
0
0
0
0
0
0
0
0
0
3.4068e-314
3.91458e-154
2.05735e-80
2.14243e-40
8.23971e-23
4.91717e-16
1.0669e-10
1.16004e-07
2.69387e-06
1.44782e-05
5.15351e-05
8.91602e-05
0.000157592
0.000214124
0.00029483
0.000454463
0.000460729
0.000765502
0.00128256
0.0124736
0.0406502
0.0627185
0.0738686
0.079991
0.0839308
0.085936
0.0876635
0.0892749
0.0909056
0.0925182
0.0941949
0.0959055
0.0976663
0.0994205
0.10128
0.103157
0.105092
0.107094
0.10917
0.109156
0.0982725
0.0902442
0.0936391
0.0985715
0.10315
0.10702
0.111014
0.115566
0.119662
0.124776
0.129928
0.135577
0.140714
0.146828
0.153999
0.161193
0.168939
0.178309
0.189357
0.20292
0.216377
0
0
0
0
0
0
0
0
0
0
0
0
0
0
0
0
0
0
0
0
1.21913e-16
1.15451e-08
5.38811e-05
0.00389999
0.0302799
0.0876719
0.14195
0.180079
0.210495
0.235393
0.248548
0.262738
0.272374
0.280986
0.283944
0.289135
0.290866
0.290801
0.290258
0.290277
0.290403
0.290553
0.290179
0.29021
0.290621
0.292999
0.295471
0.299783
0.302955
0.305313
0.308612
0.309919
0.311498
0.311577
0.310827
0.309846
0.308323
0.306237
0.304147
0.301924
0.299626
0.297352
0.295017
0.292704
0.290369
0.288062
0.285752
0.283413
0.281083
0.278737
0.276401
0.274024
0.271652
0.269237
0.266828
0.264369
0.261882
0.259319
0.25648
0.253155
0.245217
0.216115
0.202413
0.205311
0.210108
0.213201
0.21545
0.217621
0.218764
0.220639
0.222495
0.223126
0.22317
0.224242
0.225926
0.226324
0.228198
0.23089
0.230752
0.231519
)
;
    }
}


// ************************************************************************* //
