/*--------------------------------*- C++ -*----------------------------------*\
| =========                 |                                                 |
| \\      /  F ield         | foam-extend: Open Source CFD                    |
|  \\    /   O peration     | Version:     5.0                                |
|   \\  /    A nd           | Web:         http://www.foam-extend.org         |
|    \\/     M anipulation  |                                                 |
\*---------------------------------------------------------------------------*/
FoamFile
{
    version     2.0;
    format      ascii;
    class       volScalarField;
    location    "4000";
    object      S.oil;
}
// * * * * * * * * * * * * * * * * * * * * * * * * * * * * * * * * * * * * * //

dimensions      [0 0 0 0 0 0 0];

internalField   nonuniform List<scalar> 
1000
(
1
1
1
1
1
1
1
1
1
1
1
1
1
1
1
1
1
1
1
1
1
1
1
1
1
1
1
1
1
1
1
1
1
1
1
1
1
1
1
1
1
1
1
1
1
1
1
0.999997
0.999986
0.999948
0.999911
0.999842
0.999786
0.999705
0.999546
0.999539
0.999234
0.998717
0.987526
0.95935
0.937281
0.926131
0.920009
0.916069
0.914064
0.912337
0.910725
0.909094
0.907482
0.905805
0.904095
0.902334
0.900579
0.89872
0.896843
0.894908
0.892906
0.890665
0.870354
0.747705
0.57666
0.489014
0.44039
0.408446
0.388596
0.370156
0.349243
0.334706
0.314344
0.296057
0.276496
0.262839
0.245276
0.224074
0.20558
0.186764
0.162542
0.133903
0.0978706
0.0679033
1
1
1
1
1
1
1
1
1
1
1
1
1
1
1
1
1
1
1
1
1
1
1
1
1
1
1
1
1
1
1
1
1
1
1
1
1
1
1
1
1
1
1
1
0.999999
0.999732
0.993303
0.968285
0.937621
0.916373
0.901563
0.893945
0.88972
0.887337
0.884932
0.882689
0.880333
0.877939
0.875857
0.873941
0.871599
0.869204
0.867124
0.865312
0.863716
0.862219
0.860711
0.859294
0.857825
0.856373
0.854932
0.853537
0.852177
0.850883
0.8496
0.848361
0.847233
0.846388
0.843802
0.787245
0.60992
0.515808
0.458746
0.410423
0.38821
0.369731
0.344892
0.326992
0.310539
0.296456
0.277313
0.257111
0.234466
0.216784
0.200375
0.179599
0.153756
0.128271
0.101166
0.0711698
1
1
1
1
1
1
1
1
1
1
1
1
1
1
1
1
1
1
1
1
1
1
1
1
1
1
1
1
1
1
1
1
1
1
1
1
1
1
1
1
1
1
0.999999
0.999509
0.987079
0.945639
0.908748
0.883288
0.866368
0.857509
0.853022
0.850138
0.848163
0.846562
0.845267
0.844192
0.843218
0.842259
0.841378
0.840528
0.839624
0.838596
0.83756
0.83658
0.835646
0.834786
0.833968
0.83315
0.832362
0.831596
0.830888
0.830231
0.829576
0.828939
0.828417
0.827942
0.827591
0.827406
0.827426
0.823863
0.752268
0.596768
0.488761
0.444518
0.403397
0.377028
0.356705
0.335689
0.314078
0.295812
0.274672
0.261051
0.245437
0.227219
0.209094
0.190933
0.170144
0.140312
0.116629
0.0809951
1
1
1
1
1
1
1
1
1
1
1
1
1
1
1
1
1
1
1
1
1
1
1
1
1
1
1
1
1
1
1
1
1
1
1
1
1
1
1
1
1
0.999919
0.995462
0.965228
0.914573
0.88632
0.861092
0.850876
0.842809
0.837623
0.833575
0.831863
0.830091
0.828971
0.828102
0.827492
0.827015
0.826592
0.826185
0.825797
0.825386
0.824954
0.824536
0.824108
0.823705
0.823337
0.822979
0.822674
0.822372
0.822114
0.821881
0.82164
0.82143
0.821261
0.821105
0.821041
0.820985
0.821031
0.821064
0.818894
0.764027
0.634115
0.518047
0.452245
0.414255
0.388255
0.361717
0.340611
0.318873
0.298957
0.280548
0.266196
0.252513
0.229779
0.207399
0.187406
0.160336
0.139064
0.111252
0.0802422
1
1
1
1
1
1
1
1
1
1
1
1
1
1
1
1
1
1
1
1
1
1
1
1
1
1
1
1
1
1
1
1
1
1
1
1
1
1
1
0.999991
0.998151
0.978488
0.929777
0.884459
0.862527
0.850045
0.841188
0.835238
0.83042
0.827808
0.82606
0.824303
0.823269
0.822335
0.821825
0.821404
0.821063
0.82083
0.820634
0.820467
0.820315
0.820182
0.820054
0.81995
0.819853
0.819763
0.819696
0.819645
0.819605
0.819543
0.819493
0.819448
0.819397
0.819342
0.819285
0.819229
0.819178
0.819135
0.818984
0.80543
0.707249
0.559891
0.469523
0.415914
0.390849
0.372148
0.35278
0.338156
0.318114
0.304093
0.290588
0.271756
0.250153
0.227881
0.208143
0.184727
0.162682
0.132998
0.098751
0.063665
1
1
1
1
1
1
1
1
1
1
1
1
1
1
1
1
1
1
1
1
1
1
1
1
1
1
1
1
1
1
1
1
1
1
1
1
1
1
1
1
1
0.999844
0.993609
0.968145
0.92312
0.883166
0.865821
0.848858
0.841549
0.83492
0.829398
0.825333
0.822604
0.821309
0.82045
0.819724
0.819342
0.818982
0.818747
0.818606
0.818514
0.818453
0.818422
0.818413
0.818421
0.818446
0.818474
0.818507
0.818535
0.818537
0.81853
0.818517
0.818481
0.818427
0.818365
0.818285
0.818196
0.818109
0.818004
0.816518
0.767049
0.645551
0.517058
0.44607
0.40449
0.378604
0.359114
0.338704
0.319532
0.30011
0.283227
0.266904
0.249088
0.231526
0.210254
0.184851
0.15505
0.127445
0.0947787
0.0627128
1
1
1
1
1
1
1
1
1
1
1
1
1
1
1
1
1
1
1
1
1
1
1
1
1
1
1
1
0.999999
0.999995
0.99999
0.999974
0.999964
0.999978
0.999987
0.999989
0.999985
0.999989
0.999988
0.999985
0.999992
0.999995
0.999986
0.998987
0.983533
0.937571
0.900519
0.868317
0.853281
0.841115
0.833302
0.82872
0.825311
0.822112
0.820596
0.819784
0.818887
0.81835
0.818079
0.817866
0.817728
0.81766
0.817648
0.817665
0.817685
0.817729
0.817764
0.817823
0.81787
0.817927
0.817992
0.818063
0.818145
0.818229
0.818334
0.818436
0.818607
0.818747
0.818954
0.817847
0.775919
0.627532
0.524026
0.475893
0.427017
0.393872
0.366392
0.343036
0.32358
0.303902
0.284253
0.270386
0.254313
0.232847
0.210951
0.186822
0.162924
0.137988
0.109445
0.0746664
1
1
1
1
1
1
1
1
1
1
1
1
1
1
1
1
1
1
1
1
1
1
1
1
1
0.999998
0.999836
0.998357
0.996879
0.99511
0.992958
0.988029
0.986805
0.98843
0.989438
0.989868
0.988877
0.989811
0.989811
0.990442
0.992091
0.992373
0.983613
0.955798
0.922949
0.885322
0.865597
0.849006
0.840098
0.831734
0.827156
0.822942
0.82081
0.819091
0.817812
0.817058
0.816437
0.816127
0.816012
0.815977
0.815963
0.815982
0.816043
0.816115
0.816191
0.81627
0.816346
0.816432
0.816509
0.816592
0.816675
0.816753
0.816817
0.81688
0.816958
0.817027
0.817099
0.817187
0.817172
0.802349
0.702871
0.543716
0.478715
0.421304
0.391028
0.370234
0.34531
0.327429
0.310506
0.294814
0.279892
0.266171
0.245437
0.222191
0.204219
0.177216
0.151857
0.125963
0.0998734
0.0685312
1
1
1
1
1
1
1
1
1
1
1
1
1
1
1
1
1
1
1
1
1
1
1
1
0.999833
0.995034
0.972188
0.938449
0.917197
0.89848
0.889744
0.880985
0.877795
0.877377
0.874005
0.87372
0.870589
0.865569
0.860465
0.854922
0.851372
0.846816
0.843673
0.840448
0.836431
0.829949
0.822657
0.817535
0.813386
0.808538
0.805858
0.804292
0.803078
0.801839
0.801432
0.801311
0.801418
0.801585
0.801903
0.802302
0.802762
0.803234
0.803736
0.804249
0.804764
0.805277
0.805784
0.806288
0.806783
0.807272
0.807752
0.808231
0.808696
0.809156
0.809613
0.810065
0.810524
0.810983
0.811458
0.810892
0.774251
0.638791
0.517448
0.443809
0.410652
0.38037
0.359229
0.340472
0.321932
0.309053
0.288425
0.275599
0.256999
0.240434
0.218116
0.193817
0.16805
0.137312
0.111991
0.0727227
1
1
1
1
1
1
1
1
1
1
1
1
1
1
1
1
1
1
1
1
1
1
0.999946
0.9961
0.96972
0.912328
0.85805
0.819921
0.789505
0.764607
0.751452
0.737262
0.727626
0.719014
0.716056
0.710865
0.709134
0.709199
0.709742
0.709723
0.709597
0.709447
0.709821
0.70979
0.709379
0.707001
0.704529
0.700217
0.697045
0.694687
0.691388
0.690081
0.688502
0.688423
0.689173
0.690154
0.691677
0.693763
0.695853
0.698076
0.700374
0.702648
0.704983
0.707296
0.709631
0.711938
0.714248
0.716587
0.718917
0.721263
0.723599
0.725976
0.728348
0.730763
0.733172
0.735631
0.738118
0.740681
0.74352
0.746736
0.738696
0.640093
0.530101
0.441506
0.399028
0.373069
0.352356
0.332064
0.316198
0.296308
0.276319
0.26063
0.246944
0.227947
0.205264
0.186327
0.159409
0.126644
0.102089
0.0703545
)
;

boundaryField
{
    inlet
    {
        type            calculated;
        value           uniform 0;
    }
    outlet
    {
        type            calculated;
        value           nonuniform List<scalar> 10(1 1 1 1 1 1 1 1 1 1);
    }
    walls
    {
        type            calculated;
        value           nonuniform List<scalar> 
2200
(
1
1
1
1
1
1
1
1
1
1
1
1
1
1
1
1
1
1
1
1
1
1
1
1
1
1
1
1
1
1
1
1
1
1
1
1
1
1
1
1
1
1
1
1
1
1
1
0.999997
0.999986
0.999948
0.999911
0.999842
0.999786
0.999705
0.999546
0.999539
0.999234
0.998717
0.987526
0.95935
0.937281
0.926131
0.920009
0.916069
0.914064
0.912337
0.910725
0.909094
0.907482
0.905805
0.904095
0.902334
0.900579
0.89872
0.896843
0.894908
0.892906
0.890665
0.870354
0.747705
0.57666
0.489014
0.44039
0.408446
0.388596
0.370156
0.349243
0.334706
0.314344
0.296057
0.276496
0.262839
0.245276
0.224074
0.20558
0.186764
0.162542
0.133903
0.0978706
0.0679033
1
1
1
1
1
1
1
1
1
1
1
1
1
1
1
1
1
1
1
1
1
1
1
1
1
1
1
1
1
1
1
1
1
1
1
1
1
1
1
1
1
1
1
1
0.999999
0.999732
0.993303
0.968285
0.937621
0.916373
0.901563
0.893945
0.88972
0.887337
0.884932
0.882689
0.880333
0.877939
0.875857
0.873941
0.871599
0.869204
0.867124
0.865312
0.863716
0.862219
0.860711
0.859294
0.857825
0.856373
0.854932
0.853537
0.852177
0.850883
0.8496
0.848361
0.847233
0.846388
0.843802
0.787245
0.60992
0.515808
0.458746
0.410423
0.38821
0.369731
0.344892
0.326992
0.310539
0.296456
0.277313
0.257111
0.234466
0.216784
0.200375
0.179599
0.153756
0.128271
0.101166
0.0711698
1
1
1
1
1
1
1
1
1
1
1
1
1
1
1
1
1
1
1
1
1
1
1
1
1
1
1
1
1
1
1
1
1
1
1
1
1
1
1
1
1
1
0.999999
0.999509
0.987079
0.945639
0.908748
0.883288
0.866368
0.857509
0.853022
0.850138
0.848163
0.846562
0.845267
0.844192
0.843218
0.842259
0.841378
0.840528
0.839624
0.838596
0.83756
0.83658
0.835646
0.834786
0.833968
0.83315
0.832362
0.831596
0.830888
0.830231
0.829576
0.828939
0.828417
0.827942
0.827591
0.827406
0.827426
0.823863
0.752268
0.596768
0.488761
0.444518
0.403397
0.377028
0.356705
0.335689
0.314078
0.295812
0.274672
0.261051
0.245437
0.227219
0.209094
0.190933
0.170144
0.140312
0.116629
0.0809951
1
1
1
1
1
1
1
1
1
1
1
1
1
1
1
1
1
1
1
1
1
1
1
1
1
1
1
1
1
1
1
1
1
1
1
1
1
1
1
1
1
0.999919
0.995462
0.965228
0.914573
0.88632
0.861092
0.850876
0.842809
0.837623
0.833575
0.831863
0.830091
0.828971
0.828102
0.827492
0.827015
0.826592
0.826185
0.825797
0.825386
0.824954
0.824536
0.824108
0.823705
0.823337
0.822979
0.822674
0.822372
0.822114
0.821881
0.82164
0.82143
0.821261
0.821105
0.821041
0.820985
0.821031
0.821064
0.818894
0.764027
0.634115
0.518047
0.452245
0.414255
0.388255
0.361717
0.340611
0.318873
0.298957
0.280548
0.266196
0.252513
0.229779
0.207399
0.187406
0.160336
0.139064
0.111252
0.0802422
1
1
1
1
1
1
1
1
1
1
1
1
1
1
1
1
1
1
1
1
1
1
1
1
1
1
1
1
1
1
1
1
1
1
1
1
1
1
1
0.999991
0.998151
0.978488
0.929777
0.884459
0.862527
0.850045
0.841188
0.835238
0.83042
0.827808
0.82606
0.824303
0.823269
0.822335
0.821825
0.821404
0.821063
0.82083
0.820634
0.820467
0.820315
0.820182
0.820054
0.81995
0.819853
0.819763
0.819696
0.819645
0.819605
0.819543
0.819493
0.819448
0.819397
0.819342
0.819285
0.819229
0.819178
0.819135
0.818984
0.80543
0.707249
0.559891
0.469523
0.415914
0.390849
0.372148
0.35278
0.338156
0.318114
0.304093
0.290588
0.271756
0.250153
0.227881
0.208143
0.184727
0.162682
0.132998
0.098751
0.063665
1
1
1
1
1
1
1
1
1
1
1
1
1
1
1
1
1
1
1
1
1
1
1
1
1
1
1
1
1
1
1
1
1
1
1
1
1
1
1
1
1
0.999844
0.993609
0.968145
0.92312
0.883166
0.865821
0.848858
0.841549
0.83492
0.829398
0.825333
0.822604
0.821309
0.82045
0.819724
0.819342
0.818982
0.818747
0.818606
0.818514
0.818453
0.818422
0.818413
0.818421
0.818446
0.818474
0.818507
0.818535
0.818537
0.81853
0.818517
0.818481
0.818427
0.818365
0.818285
0.818196
0.818109
0.818004
0.816518
0.767049
0.645551
0.517058
0.44607
0.40449
0.378604
0.359114
0.338704
0.319532
0.30011
0.283227
0.266904
0.249088
0.231526
0.210254
0.184851
0.15505
0.127445
0.0947787
0.0627128
1
1
1
1
1
1
1
1
1
1
1
1
1
1
1
1
1
1
1
1
1
1
1
1
1
1
1
1
0.999999
0.999995
0.99999
0.999974
0.999964
0.999978
0.999987
0.999989
0.999985
0.999989
0.999988
0.999985
0.999992
0.999995
0.999986
0.998987
0.983533
0.937571
0.900519
0.868317
0.853281
0.841115
0.833302
0.82872
0.825311
0.822112
0.820596
0.819784
0.818887
0.81835
0.818079
0.817866
0.817728
0.81766
0.817648
0.817665
0.817685
0.817729
0.817764
0.817823
0.81787
0.817927
0.817992
0.818063
0.818145
0.818229
0.818334
0.818436
0.818607
0.818747
0.818954
0.817847
0.775919
0.627532
0.524026
0.475893
0.427017
0.393872
0.366392
0.343036
0.32358
0.303902
0.284253
0.270386
0.254313
0.232847
0.210951
0.186822
0.162924
0.137988
0.109445
0.0746664
1
1
1
1
1
1
1
1
1
1
1
1
1
1
1
1
1
1
1
1
1
1
1
1
1
0.999998
0.999836
0.998357
0.996879
0.99511
0.992958
0.988029
0.986805
0.98843
0.989438
0.989868
0.988877
0.989811
0.989811
0.990442
0.992091
0.992373
0.983613
0.955798
0.922949
0.885322
0.865597
0.849006
0.840098
0.831734
0.827156
0.822942
0.82081
0.819091
0.817812
0.817058
0.816437
0.816127
0.816012
0.815977
0.815963
0.815982
0.816043
0.816115
0.816191
0.81627
0.816346
0.816432
0.816509
0.816592
0.816675
0.816753
0.816817
0.81688
0.816958
0.817027
0.817099
0.817187
0.817172
0.802349
0.702871
0.543716
0.478715
0.421304
0.391028
0.370234
0.34531
0.327429
0.310506
0.294814
0.279892
0.266171
0.245437
0.222191
0.204219
0.177216
0.151857
0.125963
0.0998734
0.0685312
1
1
1
1
1
1
1
1
1
1
1
1
1
1
1
1
1
1
1
1
1
1
1
1
0.999833
0.995034
0.972188
0.938449
0.917197
0.89848
0.889744
0.880985
0.877795
0.877377
0.874005
0.87372
0.870589
0.865569
0.860465
0.854922
0.851372
0.846816
0.843673
0.840448
0.836431
0.829949
0.822657
0.817535
0.813386
0.808538
0.805858
0.804292
0.803078
0.801839
0.801432
0.801311
0.801418
0.801585
0.801903
0.802302
0.802762
0.803234
0.803736
0.804249
0.804764
0.805277
0.805784
0.806288
0.806783
0.807272
0.807752
0.808231
0.808696
0.809156
0.809613
0.810065
0.810524
0.810983
0.811458
0.810892
0.774251
0.638791
0.517448
0.443809
0.410652
0.38037
0.359229
0.340472
0.321932
0.309053
0.288425
0.275599
0.256999
0.240434
0.218116
0.193817
0.16805
0.137312
0.111991
0.0727227
1
1
1
1
1
1
1
1
1
1
1
1
1
1
1
1
1
1
1
1
1
1
0.999946
0.9961
0.96972
0.912328
0.85805
0.819921
0.789505
0.764607
0.751452
0.737262
0.727626
0.719014
0.716056
0.710865
0.709134
0.709199
0.709742
0.709723
0.709597
0.709447
0.709821
0.70979
0.709379
0.707001
0.704529
0.700217
0.697045
0.694687
0.691388
0.690081
0.688502
0.688423
0.689173
0.690154
0.691677
0.693763
0.695853
0.698076
0.700374
0.702648
0.704983
0.707296
0.709631
0.711938
0.714248
0.716587
0.718917
0.721263
0.723599
0.725976
0.728348
0.730763
0.733172
0.735631
0.738118
0.740681
0.74352
0.746736
0.738696
0.640093
0.530101
0.441506
0.399028
0.373069
0.352356
0.332064
0.316198
0.296308
0.276319
0.26063
0.246944
0.227947
0.205264
0.186327
0.159409
0.126644
0.102089
0.0703545
1
1
1
1
1
1
1
1
1
1
1
1
1
1
1
1
1
1
1
1
1
1
1
1
1
1
1
1
1
1
1
1
1
1
1
1
1
1
1
1
1
1
1
1
1
1
1
0.999997
0.999986
0.999948
0.999911
0.999842
0.999786
0.999705
0.999546
0.999539
0.999234
0.998717
0.987526
0.95935
0.937281
0.926131
0.920009
0.916069
0.914064
0.912337
0.910725
0.909094
0.907482
0.905805
0.904095
0.902334
0.900579
0.89872
0.896843
0.894908
0.892906
0.890665
0.870354
0.747705
0.57666
0.489014
0.44039
0.408446
0.388596
0.370156
0.349243
0.334706
0.314344
0.296057
0.276496
0.262839
0.245276
0.224074
0.20558
0.186764
0.162542
0.133903
0.0978706
0.0679033
1
1
1
1
1
1
1
1
1
1
1
1
1
1
1
1
1
1
1
1
1
1
1
1
1
1
1
1
1
1
1
1
1
1
1
1
1
1
1
1
1
1
1
1
0.999999
0.999732
0.993303
0.968285
0.937621
0.916373
0.901563
0.893945
0.88972
0.887337
0.884932
0.882689
0.880333
0.877939
0.875857
0.873941
0.871599
0.869204
0.867124
0.865312
0.863716
0.862219
0.860711
0.859294
0.857825
0.856373
0.854932
0.853537
0.852177
0.850883
0.8496
0.848361
0.847233
0.846388
0.843802
0.787245
0.60992
0.515808
0.458746
0.410423
0.38821
0.369731
0.344892
0.326992
0.310539
0.296456
0.277313
0.257111
0.234466
0.216784
0.200375
0.179599
0.153756
0.128271
0.101166
0.0711698
1
1
1
1
1
1
1
1
1
1
1
1
1
1
1
1
1
1
1
1
1
1
1
1
1
1
1
1
1
1
1
1
1
1
1
1
1
1
1
1
1
1
0.999999
0.999509
0.987079
0.945639
0.908748
0.883288
0.866368
0.857509
0.853022
0.850138
0.848163
0.846562
0.845267
0.844192
0.843218
0.842259
0.841378
0.840528
0.839624
0.838596
0.83756
0.83658
0.835646
0.834786
0.833968
0.83315
0.832362
0.831596
0.830888
0.830231
0.829576
0.828939
0.828417
0.827942
0.827591
0.827406
0.827426
0.823863
0.752268
0.596768
0.488761
0.444518
0.403397
0.377028
0.356705
0.335689
0.314078
0.295812
0.274672
0.261051
0.245437
0.227219
0.209094
0.190933
0.170144
0.140312
0.116629
0.0809951
1
1
1
1
1
1
1
1
1
1
1
1
1
1
1
1
1
1
1
1
1
1
1
1
1
1
1
1
1
1
1
1
1
1
1
1
1
1
1
1
1
0.999919
0.995462
0.965228
0.914573
0.88632
0.861092
0.850876
0.842809
0.837623
0.833575
0.831863
0.830091
0.828971
0.828102
0.827492
0.827015
0.826592
0.826185
0.825797
0.825386
0.824954
0.824536
0.824108
0.823705
0.823337
0.822979
0.822674
0.822372
0.822114
0.821881
0.82164
0.82143
0.821261
0.821105
0.821041
0.820985
0.821031
0.821064
0.818894
0.764027
0.634115
0.518047
0.452245
0.414255
0.388255
0.361717
0.340611
0.318873
0.298957
0.280548
0.266196
0.252513
0.229779
0.207399
0.187406
0.160336
0.139064
0.111252
0.0802422
1
1
1
1
1
1
1
1
1
1
1
1
1
1
1
1
1
1
1
1
1
1
1
1
1
1
1
1
1
1
1
1
1
1
1
1
1
1
1
0.999991
0.998151
0.978488
0.929777
0.884459
0.862527
0.850045
0.841188
0.835238
0.83042
0.827808
0.82606
0.824303
0.823269
0.822335
0.821825
0.821404
0.821063
0.82083
0.820634
0.820467
0.820315
0.820182
0.820054
0.81995
0.819853
0.819763
0.819696
0.819645
0.819605
0.819543
0.819493
0.819448
0.819397
0.819342
0.819285
0.819229
0.819178
0.819135
0.818984
0.80543
0.707249
0.559891
0.469523
0.415914
0.390849
0.372148
0.35278
0.338156
0.318114
0.304093
0.290588
0.271756
0.250153
0.227881
0.208143
0.184727
0.162682
0.132998
0.098751
0.063665
1
1
1
1
1
1
1
1
1
1
1
1
1
1
1
1
1
1
1
1
1
1
1
1
1
1
1
1
1
1
1
1
1
1
1
1
1
1
1
1
1
0.999844
0.993609
0.968145
0.92312
0.883166
0.865821
0.848858
0.841549
0.83492
0.829398
0.825333
0.822604
0.821309
0.82045
0.819724
0.819342
0.818982
0.818747
0.818606
0.818514
0.818453
0.818422
0.818413
0.818421
0.818446
0.818474
0.818507
0.818535
0.818537
0.81853
0.818517
0.818481
0.818427
0.818365
0.818285
0.818196
0.818109
0.818004
0.816518
0.767049
0.645551
0.517058
0.44607
0.40449
0.378604
0.359114
0.338704
0.319532
0.30011
0.283227
0.266904
0.249088
0.231526
0.210254
0.184851
0.15505
0.127445
0.0947787
0.0627128
1
1
1
1
1
1
1
1
1
1
1
1
1
1
1
1
1
1
1
1
1
1
1
1
1
1
1
1
0.999999
0.999995
0.99999
0.999974
0.999964
0.999978
0.999987
0.999989
0.999985
0.999989
0.999988
0.999985
0.999992
0.999995
0.999986
0.998987
0.983533
0.937571
0.900519
0.868317
0.853281
0.841115
0.833302
0.82872
0.825311
0.822112
0.820596
0.819784
0.818887
0.81835
0.818079
0.817866
0.817728
0.81766
0.817648
0.817665
0.817685
0.817729
0.817764
0.817823
0.81787
0.817927
0.817992
0.818063
0.818145
0.818229
0.818334
0.818436
0.818607
0.818747
0.818954
0.817847
0.775919
0.627532
0.524026
0.475893
0.427017
0.393872
0.366392
0.343036
0.32358
0.303902
0.284253
0.270386
0.254313
0.232847
0.210951
0.186822
0.162924
0.137988
0.109445
0.0746664
1
1
1
1
1
1
1
1
1
1
1
1
1
1
1
1
1
1
1
1
1
1
1
1
1
0.999998
0.999836
0.998357
0.996879
0.99511
0.992958
0.988029
0.986805
0.98843
0.989438
0.989868
0.988877
0.989811
0.989811
0.990442
0.992091
0.992373
0.983613
0.955798
0.922949
0.885322
0.865597
0.849006
0.840098
0.831734
0.827156
0.822942
0.82081
0.819091
0.817812
0.817058
0.816437
0.816127
0.816012
0.815977
0.815963
0.815982
0.816043
0.816115
0.816191
0.81627
0.816346
0.816432
0.816509
0.816592
0.816675
0.816753
0.816817
0.81688
0.816958
0.817027
0.817099
0.817187
0.817172
0.802349
0.702871
0.543716
0.478715
0.421304
0.391028
0.370234
0.34531
0.327429
0.310506
0.294814
0.279892
0.266171
0.245437
0.222191
0.204219
0.177216
0.151857
0.125963
0.0998734
0.0685312
1
1
1
1
1
1
1
1
1
1
1
1
1
1
1
1
1
1
1
1
1
1
1
1
0.999833
0.995034
0.972188
0.938449
0.917197
0.89848
0.889744
0.880985
0.877795
0.877377
0.874005
0.87372
0.870589
0.865569
0.860465
0.854922
0.851372
0.846816
0.843673
0.840448
0.836431
0.829949
0.822657
0.817535
0.813386
0.808538
0.805858
0.804292
0.803078
0.801839
0.801432
0.801311
0.801418
0.801585
0.801903
0.802302
0.802762
0.803234
0.803736
0.804249
0.804764
0.805277
0.805784
0.806288
0.806783
0.807272
0.807752
0.808231
0.808696
0.809156
0.809613
0.810065
0.810524
0.810983
0.811458
0.810892
0.774251
0.638791
0.517448
0.443809
0.410652
0.38037
0.359229
0.340472
0.321932
0.309053
0.288425
0.275599
0.256999
0.240434
0.218116
0.193817
0.16805
0.137312
0.111991
0.0727227
1
1
1
1
1
1
1
1
1
1
1
1
1
1
1
1
1
1
1
1
1
1
0.999946
0.9961
0.96972
0.912328
0.85805
0.819921
0.789505
0.764607
0.751452
0.737262
0.727626
0.719014
0.716056
0.710865
0.709134
0.709199
0.709742
0.709723
0.709597
0.709447
0.709821
0.70979
0.709379
0.707001
0.704529
0.700217
0.697045
0.694687
0.691388
0.690081
0.688502
0.688423
0.689173
0.690154
0.691677
0.693763
0.695853
0.698076
0.700374
0.702648
0.704983
0.707296
0.709631
0.711938
0.714248
0.716587
0.718917
0.721263
0.723599
0.725976
0.728348
0.730763
0.733172
0.735631
0.738118
0.740681
0.74352
0.746736
0.738696
0.640093
0.530101
0.441506
0.399028
0.373069
0.352356
0.332064
0.316198
0.296308
0.276319
0.26063
0.246944
0.227947
0.205264
0.186327
0.159409
0.126644
0.102089
0.0703545
1
1
1
1
1
1
1
1
1
1
1
1
1
1
1
1
1
1
1
1
1
1
1
1
1
1
1
1
1
1
1
1
1
1
1
1
1
1
1
1
1
1
1
1
1
1
1
0.999997
0.999986
0.999948
0.999911
0.999842
0.999786
0.999705
0.999546
0.999539
0.999234
0.998717
0.987526
0.95935
0.937281
0.926131
0.920009
0.916069
0.914064
0.912337
0.910725
0.909094
0.907482
0.905805
0.904095
0.902334
0.900579
0.89872
0.896843
0.894908
0.892906
0.890665
0.870354
0.747705
0.57666
0.489014
0.44039
0.408446
0.388596
0.370156
0.349243
0.334706
0.314344
0.296057
0.276496
0.262839
0.245276
0.224074
0.20558
0.186764
0.162542
0.133903
0.0978706
0.0679033
1
1
1
1
1
1
1
1
1
1
1
1
1
1
1
1
1
1
1
1
1
1
0.999946
0.9961
0.96972
0.912328
0.85805
0.819921
0.789505
0.764607
0.751452
0.737262
0.727626
0.719014
0.716056
0.710865
0.709134
0.709199
0.709742
0.709723
0.709597
0.709447
0.709821
0.70979
0.709379
0.707001
0.704529
0.700217
0.697045
0.694687
0.691388
0.690081
0.688502
0.688423
0.689173
0.690154
0.691677
0.693763
0.695853
0.698076
0.700374
0.702648
0.704983
0.707296
0.709631
0.711938
0.714248
0.716587
0.718917
0.721263
0.723599
0.725976
0.728348
0.730763
0.733172
0.735631
0.738118
0.740681
0.74352
0.746736
0.738696
0.640093
0.530101
0.441506
0.399028
0.373069
0.352356
0.332064
0.316198
0.296308
0.276319
0.26063
0.246944
0.227947
0.205264
0.186327
0.159409
0.126644
0.102089
0.0703545
)
;
    }
}


// ************************************************************************* //
