/*--------------------------------*- C++ -*----------------------------------*\
| =========                 |                                                 |
| \\      /  F ield         | foam-extend: Open Source CFD                    |
|  \\    /   O peration     | Version:     5.0                                |
|   \\  /    A nd           | Web:         http://www.foam-extend.org         |
|    \\/     M anipulation  |                                                 |
\*---------------------------------------------------------------------------*/
FoamFile
{
    version     2.0;
    format      ascii;
    class       volVectorField;
    location    "4000";
    object      U.gas;
}
// * * * * * * * * * * * * * * * * * * * * * * * * * * * * * * * * * * * * * //

dimensions      [0 1 -1 0 0 0 0];

internalField   nonuniform List<vector> 
1000
(
(0 0 0)
(0 0 0)
(0 0 0)
(0 0 0)
(0 0 0)
(0 0 0)
(0 0 0)
(0 0 0)
(0 0 0)
(0 0 0)
(0 0 0)
(0 0 0)
(0 0 0)
(0 0 0)
(0 0 0)
(0 0 0)
(0 0 0)
(0 0 0)
(0 0 0)
(0 0 0)
(0 0 0)
(0 0 0)
(0 0 0)
(0 0 0)
(0 0 0)
(0 0 0)
(0 0 0)
(0 0 0)
(0 0 0)
(0 0 0)
(0 0 0)
(0 0 0)
(0 0 0)
(0 0 0)
(0 0 0)
(0 0 0)
(0 0 0)
(0 0 0)
(0 0 0)
(0 0 -1.05283e-307)
(0 7.2134e-170 -1.45178e-147)
(0 1.59278e-80 -6.35832e-74)
(0 2.82894e-41 -7.94552e-34)
(0 3.37656e-25 -2.16453e-16)
(0 2.68544e-14 -1.72875e-09)
(0 -1.10928e-07 -0.000352142)
(0 -3.38554e-07 -0.00126447)
(0 -3.19443e-07 -0.000915739)
(0 -6.98923e-07 -0.000599215)
(0 -9.25864e-07 -0.000391534)
(0 -1.32e-06 -0.000253832)
(0 -1.6762e-06 -0.00017502)
(0 -2.09295e-06 -0.000126605)
(0 -3.67838e-06 -0.000105544)
(0 -3.99481e-06 -8.39863e-05)
(0 -6.05563e-06 -6.97054e-05)
(0 -1.42033e-05 -6.10356e-05)
(0 -0.000451584 -2.83429e-05)
(0 -0.000636856 -1.87895e-06)
(0 -0.000639784 6.50999e-06)
(0 -0.000693247 1.24876e-05)
(0 -0.000657696 1.35007e-05)
(0 -0.000515559 1.08787e-05)
(0 -0.000666198 1.41112e-05)
(0 -0.000717965 1.50701e-05)
(0 -0.000572736 1.19352e-05)
(0 -0.000745853 1.54693e-05)
(0 -0.00065116 1.34323e-05)
(0 -0.000773995 1.58934e-05)
(0 -0.000788493 1.61181e-05)
(0 -0.000850561 1.72966e-05)
(0 -0.000701083 1.41549e-05)
(0 -0.000937312 1.87358e-05)
(0 -0.000803402 1.57837e-05)
(0 -0.000817106 1.55452e-05)
(0 -0.000829601 1.47556e-05)
(0 -0.000885606 1.32728e-05)
(0 -0.000886773 7.06352e-06)
(0 -0.000995428 4.54422e-06)
(0 -0.000826376 3.18726e-05)
(0 -0.00101739 4.02551e-05)
(0 -0.00105041 3.21858e-05)
(0 -0.00106347 2.37234e-05)
(0 -0.00126933 2.53472e-05)
(0 -0.00120455 2.32182e-05)
(0 -0.000981899 1.8422e-05)
(0 -0.00129196 2.4946e-05)
(0 -0.0009078 1.93588e-05)
(0 -0.00100027 2.22844e-05)
(0 -0.000961972 2.11144e-05)
(0 -0.00141619 3.02983e-05)
(0 -0.00112865 2.55106e-05)
(0 -0.000982917 2.47571e-05)
(0 -0.00120875 3.12147e-05)
(0 -0.00129073 3.35274e-05)
(0 -0.00110698 3.0466e-05)
(0 -0.00106103 3.22215e-05)
(0 -0.00101863 3.37494e-05)
(0 -0.0014905 4.7833e-05)
(0 -0.00131646 4.21768e-05)
(0 0 0)
(0 0 0)
(0 0 0)
(0 0 0)
(0 0 0)
(0 0 0)
(0 0 0)
(0 0 0)
(0 0 0)
(0 0 0)
(0 0 0)
(0 0 0)
(0 0 0)
(0 0 0)
(0 0 0)
(0 0 0)
(0 0 0)
(0 0 0)
(0 0 0)
(0 0 0)
(0 0 0)
(0 0 0)
(0 0 0)
(0 0 0)
(0 0 0)
(0 0 0)
(0 0 0)
(0 0 0)
(0 0 0)
(0 0 0)
(0 0 0)
(0 0 0)
(0 0 0)
(0 0 0)
(0 0 0)
(0 0 0)
(0 0 0)
(0 0 0)
(0 9.96922e-214 -3.12589e-211)
(0 1.25242e-103 -2.95008e-94)
(0 5.69622e-53 -3.22576e-44)
(0 5.28551e-25 -3.09387e-21)
(0 -2.78462e-13 -4.13997e-09)
(0 -3.16937e-06 -0.00118343)
(0 -0.000585626 -0.000791544)
(0 -0.000690979 -0.000591125)
(0 -0.00079919 -0.000130734)
(0 -0.000822856 -1.65266e-05)
(0 -0.00090941 2.94514e-06)
(0 -0.000802786 7.63493e-06)
(0 -0.000800569 1.0408e-05)
(0 -0.000748282 1.09449e-05)
(0 -0.00111453 1.74328e-05)
(0 -0.000708825 1.17271e-05)
(0 -0.000785998 1.35367e-05)
(0 -0.000765289 1.34119e-05)
(0 -0.000896491 1.5566e-05)
(0 -0.0010145 1.70356e-05)
(0 -0.000776022 1.33913e-05)
(0 -0.000792273 1.65896e-05)
(0 -0.000966986 2.47225e-05)
(0 -0.00122541 3.43757e-05)
(0 -0.00116777 3.38573e-05)
(0 -0.00105713 3.08529e-05)
(0 -0.000967536 2.81533e-05)
(0 -0.00137042 3.97819e-05)
(0 -0.000903574 2.61816e-05)
(0 -0.00131349 3.80294e-05)
(0 -0.00124968 3.61515e-05)
(0 -0.00126295 3.64967e-05)
(0 -0.00108436 3.12435e-05)
(0 -0.00104267 2.98542e-05)
(0 -0.000920434 2.60879e-05)
(0 -0.00111381 3.10212e-05)
(0 -0.00132022 3.54349e-05)
(0 -0.0015053 3.73145e-05)
(0 -0.00151066 3.07996e-05)
(0 -0.00113229 1.18578e-05)
(0 -0.00132061 -3.37557e-06)
(0 -0.000960721 3.9939e-05)
(0 -0.00164587 0.000133486)
(0 -0.00152598 8.86767e-05)
(0 -0.00115558 4.83919e-05)
(0 -0.00171318 5.38951e-05)
(0 -0.00170508 5.11312e-05)
(0 -0.00113481 3.5435e-05)
(0 -0.00142033 4.36074e-05)
(0 -0.00148894 4.79574e-05)
(0 -0.00166114 5.7e-05)
(0 -0.00120255 4.35631e-05)
(0 -0.00114398 4.43302e-05)
(0 -0.00109148 4.40961e-05)
(0 -0.00152292 6.27065e-05)
(0 -0.00170553 7.21634e-05)
(0 -0.00140665 6.33272e-05)
(0 -0.00124896 6.09414e-05)
(0 -0.00143785 7.56121e-05)
(0 -0.00149048 8.82945e-05)
(0 -0.00154483 9.14774e-05)
(0 -0.00124546 7.6373e-05)
(0 0 0)
(0 0 0)
(0 0 0)
(0 0 0)
(0 0 0)
(0 0 0)
(0 0 0)
(0 0 0)
(0 0 0)
(0 0 0)
(0 0 0)
(0 0 0)
(0 0 0)
(0 0 0)
(0 0 0)
(0 0 0)
(0 0 0)
(0 0 0)
(0 0 0)
(0 0 0)
(0 0 0)
(0 0 0)
(0 0 0)
(0 0 0)
(0 0 0)
(0 0 0)
(0 0 0)
(0 0 0)
(0 0 0)
(0 0 0)
(0 0 0)
(0 0 0)
(0 0 -5.67345e-186)
(0 0 -2.12249e-198)
(0 0 -3.54122e-210)
(0 0 -4.47028e-214)
(0 0 -2.65697e-206)
(0 8.94594e-150 0)
(0 6.29554e-67 -9.79388e-62)
(0 4.84021e-32 -1.30896e-27)
(0 2.04278e-16 -1.8565e-12)
(0 -8.28618e-06 -3.14625e-05)
(0 -0.00143708 -6.88807e-05)
(0 -0.00122965 -8.31482e-05)
(0 -0.000948495 -5.51788e-05)
(0 -0.00102435 -2.13671e-05)
(0 -0.00108741 -7.90789e-06)
(0 -0.00101517 2.14091e-06)
(0 -0.00104987 9.99238e-06)
(0 -0.00124059 1.77824e-05)
(0 -0.00132359 2.46948e-05)
(0 -0.0014135 2.97371e-05)
(0 -0.00119637 2.75162e-05)
(0 -0.00108758 2.68493e-05)
(0 -0.000997541 2.6033e-05)
(0 -0.00104798 2.83971e-05)
(0 -0.00144914 4.00299e-05)
(0 -0.0015557 4.31846e-05)
(0 -0.00156704 4.50298e-05)
(0 -0.00118352 3.67958e-05)
(0 -0.00148877 4.93862e-05)
(0 -0.00159718 5.4828e-05)
(0 -0.0013385 4.65092e-05)
(0 -0.00142543 4.9579e-05)
(0 -0.00110776 3.84764e-05)
(0 -0.0010656 3.69735e-05)
(0 -0.00136937 4.74777e-05)
(0 -0.0013044 4.51828e-05)
(0 -0.00138413 4.78784e-05)
(0 -0.00113798 3.92401e-05)
(0 -0.00104787 3.59119e-05)
(0 -0.00132944 4.51288e-05)
(0 -0.00158521 5.29834e-05)
(0 -0.0010604 3.45495e-05)
(0 -0.0012158 3.79346e-05)
(0 -0.00111341 3.20267e-05)
(0 -0.00116871 2.86894e-05)
(0 -0.00172913 3.00071e-05)
(0 -0.00132419 1.09011e-05)
(0 -0.00123013 4.38037e-05)
(0 -0.0011834 9.43885e-05)
(0 -0.00126796 8.77509e-05)
(0 -0.00166839 8.74049e-05)
(0 -0.00123303 5.24753e-05)
(0 -0.00138771 5.49047e-05)
(0 -0.00151557 5.95986e-05)
(0 -0.00129628 5.07864e-05)
(0 -0.00117672 4.63763e-05)
(0 -0.00132884 5.45612e-05)
(0 -0.00115137 5.09861e-05)
(0 -0.00181115 8.48427e-05)
(0 -0.0015771 7.57425e-05)
(0 -0.0013881 6.33285e-05)
(0 -0.00143725 6.66085e-05)
(0 -0.00149187 7.47197e-05)
(0 -0.00137917 7.41227e-05)
(0 -0.00105691 6.21607e-05)
(0 -0.00147366 9.13053e-05)
(0 -0.00115366 7.46403e-05)
(0 -0.00102093 6.86618e-05)
(0 0 0)
(0 0 0)
(0 0 0)
(0 0 0)
(0 0 0)
(0 0 0)
(0 0 0)
(0 0 0)
(0 0 0)
(0 0 0)
(0 0 0)
(0 0 0)
(0 0 0)
(0 0 0)
(0 0 0)
(0 0 0)
(0 0 0)
(0 0 0)
(0 0 0)
(0 0 0)
(0 0 0)
(0 0 0)
(0 0 0)
(0 0 0)
(0 0 0)
(0 0 0)
(0 0 0)
(0 0 0)
(0 0 0)
(0 0 0)
(0 0 0)
(0 4.17502e-126 -9.0088e-62)
(0 4.17502e-126 -3.74076e-60)
(0 3.80876e-134 -1.15967e-64)
(0 4.99005e-142 -1.35742e-68)
(0 1.70392e-139 -6.34073e-70)
(0 1.70391e-139 -2.48574e-67)
(0 5.13676e-45 0)
(0 9.16805e-21 -5.33915e-17)
(0 -4.35789e-09 -3.93457e-07)
(0 -0.00118211 -0.000343182)
(0 -0.00141394 -1.75539e-05)
(0 -0.00110525 -5.20409e-05)
(0 -0.000939393 -1.08427e-05)
(0 -0.00127838 -1.05682e-05)
(0 -0.00102446 -1.0421e-06)
(0 -0.00141572 8.00846e-06)
(0 -0.00123607 1.34257e-05)
(0 -0.00124941 1.92205e-05)
(0 -0.00105011 1.93141e-05)
(0 -0.0016786 3.46738e-05)
(0 -0.00114817 2.64935e-05)
(0 -0.00126437 3.18962e-05)
(0 -0.00110133 3.00514e-05)
(0 -0.00110303 3.18646e-05)
(0 -0.00149505 4.51088e-05)
(0 -0.00115794 3.6104e-05)
(0 -0.00170336 5.45451e-05)
(0 -0.00142421 4.7303e-05)
(0 -0.001513 5.28094e-05)
(0 -0.00151739 5.53671e-05)
(0 -0.00123147 4.62381e-05)
(0 -0.00172852 6.58511e-05)
(0 -0.00162473 6.2227e-05)
(0 -0.0013718 5.25834e-05)
(0 -0.00163344 6.2571e-05)
(0 -0.00113915 4.35781e-05)
(0 -0.00145924 5.56771e-05)
(0 -0.00119658 4.54527e-05)
(0 -0.00125618 4.7414e-05)
(0 -0.00176233 6.59035e-05)
(0 -0.00165527 6.11078e-05)
(0 -0.00147379 5.34046e-05)
(0 -0.00177149 6.24113e-05)
(0 -0.00115704 3.91514e-05)
(0 -0.00148171 4.72845e-05)
(0 -0.00111504 3.30114e-05)
(0 -0.0015854 4.45719e-05)
(0 -0.00151891 4.91571e-05)
(0 -0.00146793 6.9496e-05)
(0 -0.00181885 9.44623e-05)
(0 -0.00146898 7.58934e-05)
(0 -0.00139588 6.84991e-05)
(0 -0.001425 7.11089e-05)
(0 -0.00146932 7.02611e-05)
(0 -0.00121201 5.56066e-05)
(0 -0.00130545 6.0328e-05)
(0 -0.00118378 5.41096e-05)
(0 -0.00121936 5.75116e-05)
(0 -0.00131747 6.41321e-05)
(0 -0.0017006 7.90778e-05)
(0 -0.00178559 8.225e-05)
(0 -0.00110242 5.12624e-05)
(0 -0.00118083 5.63542e-05)
(0 -0.00141489 6.90999e-05)
(0 -0.00113705 5.97709e-05)
(0 -0.00161908 9.19765e-05)
(0 -0.00131552 7.85649e-05)
(0 -0.00135356 9.32087e-05)
(0 -0.00102061 8.19613e-05)
(0 0 0)
(0 0 0)
(0 0 0)
(0 0 0)
(0 0 0)
(0 0 0)
(0 0 0)
(0 0 0)
(0 0 0)
(0 0 0)
(0 0 0)
(0 0 0)
(0 0 0)
(0 0 0)
(0 0 0)
(0 0 0)
(0 0 0)
(0 0 0)
(0 0 0)
(0 0 0)
(0 0 0)
(0 0 0)
(0 0 0)
(0 0 0)
(0 0 0)
(0 0 0)
(0 0 2.08701e-36)
(0 0 2.37711e-24)
(0 0 1.3879e-21)
(0 0 2.62018e-19)
(0 5.05989e-43 1.14249e-18)
(0 5.80636e-42 -5.179e-19)
(0 5.30508e-42 -1.28517e-18)
(0 4.71415e-45 -2.62019e-20)
(0 1.16672e-47 -1.08679e-21)
(0 9.11706e-47 -2.53541e-22)
(0 8.94203e-47 -1.79737e-21)
(0 5.51678e-15 -3.33574e-22)
(0 -0.000750125 -1.96866e-16)
(0 -0.00148658 9.34322e-10)
(0 -0.00125871 2.08181e-07)
(0 -0.000995762 2.95893e-06)
(0 -0.00097472 1.23265e-05)
(0 -0.00129401 2.12614e-05)
(0 -0.00143527 1.39551e-05)
(0 -0.00139136 1.34454e-05)
(0 -0.00139641 9.38951e-06)
(0 -0.00120764 1.38269e-05)
(0 -0.00155449 2.16216e-05)
(0 -0.00175322 2.94536e-05)
(0 -0.00125066 2.44009e-05)
(0 -0.00154166 3.50841e-05)
(0 -0.00119142 3.06482e-05)
(0 -0.00163779 4.62333e-05)
(0 -0.00145694 4.39573e-05)
(0 -0.00125026 3.97793e-05)
(0 -0.0016431 5.45101e-05)
(0 -0.00164585 5.67287e-05)
(0 -0.00119919 4.29224e-05)
(0 -0.0017619 6.55426e-05)
(0 -0.00139301 5.35968e-05)
(0 -0.00165631 6.52895e-05)
(0 -0.00132653 5.30754e-05)
(0 -0.0014756 5.94784e-05)
(0 -0.00166202 6.71662e-05)
(0 -0.00133113 5.37864e-05)
(0 -0.00121148 4.88462e-05)
(0 -0.00111175 4.46579e-05)
(0 -0.00178093 7.1106e-05)
(0 -0.00140757 5.57594e-05)
(0 -0.00116407 4.565e-05)
(0 -0.00127641 4.93605e-05)
(0 -0.00121989 4.62915e-05)
(0 -0.00134375 4.97443e-05)
(0 -0.00158354 5.67631e-05)
(0 -0.00128464 4.4405e-05)
(0 -0.00180317 6.03185e-05)
(0 -0.00117814 3.9398e-05)
(0 -0.00179569 6.52623e-05)
(0 -0.00166534 7.52803e-05)
(0 -0.00137185 7.5165e-05)
(0 -0.00143728 7.53532e-05)
(0 -0.00137756 6.48552e-05)
(0 -0.00192356 8.67997e-05)
(0 -0.00200495 9.00455e-05)
(0 -0.00163997 7.53674e-05)
(0 -0.00192862 8.83634e-05)
(0 -0.00129625 6.07538e-05)
(0 -0.00174634 8.30989e-05)
(0 -0.00171883 8.35612e-05)
(0 -0.0012367 5.94019e-05)
(0 -0.0011212 5.35074e-05)
(0 -0.00115345 5.7438e-05)
(0 -0.0013702 6.80884e-05)
(0 -0.00121782 6.0055e-05)
(0 -0.00138784 7.29331e-05)
(0 -0.00111336 6.24759e-05)
(0 -0.00113878 6.95473e-05)
(0 -0.00136437 9.46675e-05)
(0 -0.0014868 0.000121316)
(0 0 0)
(0 0 0)
(0 0 0)
(0 0 0)
(0 0 0)
(0 0 0)
(0 0 0)
(0 0 0)
(0 0 0)
(0 0 0)
(0 0 0)
(0 0 0)
(0 0 0)
(0 0 0)
(0 0 0)
(0 0 0)
(0 0 0)
(0 0 0)
(0 0 0)
(0 0 0)
(0 0 0)
(0 0 0)
(0 0 -1.00329e-289)
(0 0 -1.1396e-144)
(0 0 -6.61724e-70)
(0 1.45991e-33 6.42303e-23)
(0 4.43236e-22 -6.04019e-13)
(0 2.03237e-19 -2.89418e-08)
(0 4.4956e-17 -4.04507e-07)
(0 4.26951e-16 -4.97661e-06)
(0 1.18224e-14 -1.25627e-05)
(0 3.09675e-14 -5.81794e-05)
(0 2.12982e-14 -3.22229e-05)
(0 1.96133e-15 -2.43237e-06)
(0 2.60676e-16 -8.70221e-07)
(0 3.41857e-16 -6.08579e-07)
(0 3.70383e-16 -1.14027e-06)
(0 2.85971e-16 -5.55592e-07)
(0 1.20512e-15 -7.5436e-07)
(0 -6.95545e-07 1.83255e-05)
(0 -0.000350462 0.00114458)
(0 -0.000973193 0.000395874)
(0 -0.000878391 0.000240292)
(0 -0.000847733 8.11383e-05)
(0 -0.000917701 3.56253e-05)
(0 -0.00141634 3.62396e-05)
(0 -0.00111263 1.51246e-05)
(0 -0.00165031 2.6764e-05)
(0 -0.00140544 2.36851e-05)
(0 -0.00122463 2.42055e-05)
(0 -0.00113127 2.59817e-05)
(0 -0.0010924 2.76266e-05)
(0 -0.00146012 3.98104e-05)
(0 -0.00154969 4.61744e-05)
(0 -0.00132097 4.21536e-05)
(0 -0.00176427 5.90236e-05)
(0 -0.00132609 4.63973e-05)
(0 -0.00132864 4.83591e-05)
(0 -0.00147886 5.56329e-05)
(0 -0.00156826 6.07909e-05)
(0 -0.00148304 5.89668e-05)
(0 -0.00121464 4.92302e-05)
(0 -0.00133728 5.4865e-05)
(0 -0.00127458 5.26318e-05)
(0 -0.00116458 4.82193e-05)
(0 -0.0012184 5.04223e-05)
(0 -0.00111768 4.61541e-05)
(0 -0.00111857 4.60059e-05)
(0 -0.00149279 6.10799e-05)
(0 -0.00149422 6.07004e-05)
(0 -0.00112184 4.51455e-05)
(0 -0.00149759 5.95427e-05)
(0 -0.0012854 5.03242e-05)
(0 -0.00180237 6.92578e-05)
(0 -0.00142561 5.35961e-05)
(0 -0.00150823 5.55307e-05)
(0 -0.00170155 6.16582e-05)
(0 -0.00124249 4.47869e-05)
(0 -0.00162066 5.6394e-05)
(0 -0.00121387 4.36494e-05)
(0 -0.0019504 0.000115861)
(0 -0.00130446 7.13848e-05)
(0 -0.00131587 6.60837e-05)
(0 -0.00133739 5.80728e-05)
(0 -0.00150199 6.26444e-05)
(0 -0.00163741 6.91194e-05)
(0 -0.00138287 5.96336e-05)
(0 -0.0013621 6.25848e-05)
(0 -0.00128228 5.88648e-05)
(0 -0.00146308 6.84512e-05)
(0 -0.00152393 7.62009e-05)
(0 -0.0014239 7.22568e-05)
(0 -0.00147676 7.46542e-05)
(0 -0.00124514 6.31705e-05)
(0 -0.00111763 5.80346e-05)
(0 -0.00105134 5.76059e-05)
(0 -0.00129621 7.76306e-05)
(0 -0.00126441 8.15451e-05)
(0 -0.00154738 0.000104792)
(0 -0.00148625 0.000105394)
(0 0 0)
(0 0 0)
(0 0 0)
(0 0 0)
(0 0 0)
(0 0 0)
(0 0 0)
(0 0 0)
(0 0 0)
(0 0 0)
(0 0 0)
(0 0 0)
(0 0 0)
(0 0 0)
(0 0 0)
(0 0 0)
(0 0 0)
(0 0 0)
(0 0 0)
(0 0 0)
(0 0 0)
(0 2.01235e-204 -5.19513e-194)
(0 1.35446e-102 -1.57853e-85)
(0 6.36612e-52 -2.66537e-42)
(0 1.43189e-20 -3.30372e-18)
(0 -4.44629e-11 -6.86336e-07)
(0 -2.97942e-07 -0.00153006)
(0 -2.88987e-08 -0.00141836)
(0 -8.87419e-08 -0.00121817)
(0 -1.31368e-07 -0.000968695)
(0 -4.19902e-07 -0.000761945)
(0 -3.40337e-07 -0.00051258)
(0 -2.49043e-07 -0.000294835)
(0 -1.50576e-07 -9.05152e-05)
(0 -8.7716e-08 -1.78608e-05)
(0 -1.4212e-07 -2.26022e-05)
(0 -9.57479e-08 -1.89513e-05)
(0 -1.00916e-07 -2.17477e-05)
(0 -1.23626e-07 -1.95515e-05)
(0 -7.24119e-08 -1.34243e-05)
(0 -4.36603e-08 -1.67937e-05)
(0 -1.76337e-07 -2.54333e-05)
(0 -0.000300141 0.000417728)
(0 -0.00104076 0.000214127)
(0 -0.000924742 8.27652e-05)
(0 -0.00110179 5.39694e-05)
(0 -0.00105269 3.7256e-05)
(0 -0.0014408 5.01741e-05)
(0 -0.00128221 4.11294e-05)
(0 -0.0013197 4.27461e-05)
(0 -0.00149839 4.81287e-05)
(0 -0.00143346 4.66345e-05)
(0 -0.00108886 3.54433e-05)
(0 -0.00138234 4.63006e-05)
(0 -0.00175773 6.12847e-05)
(0 -0.00120421 4.33947e-05)
(0 -0.0012654 4.72557e-05)
(0 -0.00156685 6.03235e-05)
(0 -0.00133495 5.26766e-05)
(0 -0.0012159 4.89787e-05)
(0 -0.00111624 4.57363e-05)
(0 -0.00121911 5.06065e-05)
(0 -0.00122028 5.1078e-05)
(0 -0.00179133 7.5303e-05)
(0 -0.00116911 4.92083e-05)
(0 -0.00158296 6.65649e-05)
(0 -0.00112199 4.70727e-05)
(0 -0.00141829 5.92853e-05)
(0 -0.00128407 5.34394e-05)
(0 -0.00122649 5.07408e-05)
(0 -0.00128574 5.27886e-05)
(0 -0.00128657 5.23288e-05)
(0 -0.00150205 6.04091e-05)
(0 -0.00142399 5.65247e-05)
(0 -0.00180523 7.06346e-05)
(0 -0.00117806 4.55382e-05)
(0 -0.00180804 6.97365e-05)
(0 -0.00123415 4.90949e-05)
(0 -0.00124038 5.60677e-05)
(0 -0.00162574 8.38013e-05)
(0 -0.00134615 5.3215e-05)
(0 -0.00180735 6.55786e-05)
(0 -0.00204259 8.96861e-05)
(0 -0.00130792 6.24086e-05)
(0 -0.00128255 6.06253e-05)
(0 -0.00121222 5.51908e-05)
(0 -0.00119634 5.68153e-05)
(0 -0.0012876 6.30933e-05)
(0 -0.00121703 6.08379e-05)
(0 -0.00120157 6.01952e-05)
(0 -0.00169956 8.7269e-05)
(0 -0.00149078 7.55888e-05)
(0 -0.00115039 5.87981e-05)
(0 -0.00118182 6.38313e-05)
(0 -0.00115927 6.39176e-05)
(0 -0.00124451 7.36713e-05)
(0 -0.00127706 8.01019e-05)
(0 -0.00124448 8.4186e-05)
(0 -0.00121112 8.34797e-05)
(0 -0.00111763 7.85634e-05)
(0 0 0)
(0 0 0)
(0 0 0)
(0 0 0)
(0 0 0)
(0 0 0)
(0 0 0)
(0 0 0)
(0 0 0)
(0 0 0)
(0 0 0)
(0 0 0)
(0 0 0)
(0 0 0)
(0 0 0)
(0 0 0)
(0 0 0)
(0 0 0)
(0 0 0)
(0 0 0)
(0 2.62063e-140 0)
(0 5.50027e-62 -6.29293e-54)
(0 3.10656e-31 -9.13619e-24)
(0 -2.15022e-15 -2.74116e-11)
(0 -4.70741e-05 -0.000869325)
(0 -5.9495e-05 -0.00146444)
(0 -8.17092e-05 -0.00128356)
(0 -4.56586e-05 -0.00102822)
(0 -4.83889e-05 -0.000759089)
(0 -5.78659e-05 -0.000529703)
(0 -0.000103809 -0.000363139)
(0 -0.00014058 -0.000246407)
(0 -0.000139072 -0.000167753)
(0 -0.000110756 -9.63469e-05)
(0 -8.54219e-05 -3.25102e-05)
(0 -8.97408e-05 -3.46216e-06)
(0 -0.000112908 -4.23816e-06)
(0 -9.46214e-05 -4.13327e-06)
(0 -8.44507e-05 -4.16385e-06)
(0 -7.87981e-05 -5.31367e-06)
(0 -6.71223e-05 -6.33212e-06)
(0 -0.00015769 -5.86447e-06)
(0 -0.000714372 -2.70865e-06)
(0 -0.0010648 7.07529e-06)
(0 -0.000897998 1.4759e-05)
(0 -0.00120605 3.68549e-05)
(0 -0.00107148 4.42265e-05)
(0 -0.0013996 6.20828e-05)
(0 -0.00112586 4.68057e-05)
(0 -0.00144969 5.70615e-05)
(0 -0.00114789 4.25591e-05)
(0 -0.00155784 5.56039e-05)
(0 -0.00139943 4.96956e-05)
(0 -0.00127021 4.5546e-05)
(0 -0.00140748 5.13675e-05)
(0 -0.00116614 4.38568e-05)
(0 -0.00127963 4.94001e-05)
(0 -0.00158324 6.24527e-05)
(0 -0.00179698 7.22623e-05)
(0 -0.00142062 5.80294e-05)
(0 -0.00112594 4.65217e-05)
(0 -0.00159097 6.63051e-05)
(0 -0.00135339 5.67117e-05)
(0 -0.00159334 6.6964e-05)
(0 -0.00159436 6.70376e-05)
(0 -0.00169505 7.1211e-05)
(0 -0.00117982 4.94607e-05)
(0 -0.00150848 6.30446e-05)
(0 -0.00118123 4.91683e-05)
(0 -0.0011327 4.69004e-05)
(0 -0.00123652 5.08788e-05)
(0 -0.00181502 7.40868e-05)
(0 -0.0018166 7.34546e-05)
(0 -0.00129875 5.19178e-05)
(0 -0.00160597 6.33647e-05)
(0 -0.00160745 6.24513e-05)
(0 -0.0011883 4.54224e-05)
(0 -0.00123889 4.65783e-05)
(0 -0.00116769 4.37427e-05)
(0 -0.00174988 6.95424e-05)
(0 -0.00123246 5.67815e-05)
(0 -0.00197016 9.31956e-05)
(0 -0.00133368 5.57649e-05)
(0 -0.00164926 7.36419e-05)
(0 -0.00191507 8.51519e-05)
(0 -0.00131083 5.99524e-05)
(0 -0.00164066 7.63091e-05)
(0 -0.00161353 7.57517e-05)
(0 -0.00168012 8.13118e-05)
(0 -0.00175431 8.35092e-05)
(0 -0.00184172 9.07888e-05)
(0 -0.00124304 6.21007e-05)
(0 -0.0011714 6.13871e-05)
(0 -0.00164869 8.7256e-05)
(0 -0.00112843 6.16103e-05)
(0 -0.00133136 7.47754e-05)
(0 -0.00144836 8.4254e-05)
(0 -0.00159447 0.000102459)
(0 -0.00154634 0.000102692)
(0 -0.00131531 9.45948e-05)
(0 0 0)
(0 0 0)
(0 0 0)
(0 0 0)
(0 0 0)
(0 0 0)
(0 0 0)
(0 0 0)
(0 0 0)
(0 0 0)
(0 0 0)
(0 0 0)
(0 0 0)
(0 0 0)
(0 0 0)
(0 0 0)
(0 0 0)
(0 0 0)
(0 0 0)
(0 0 0)
(0 1.65871e-40 -2.67607e-43)
(0 2.44506e-18 -1.20771e-13)
(0 -9.35008e-08 -1.16737e-05)
(0 -0.00122385 -0.000317619)
(0 -0.00102392 -0.000489316)
(0 -0.000788893 -0.000532884)
(0 -0.000868247 -0.000320435)
(0 -0.00112395 -0.000278086)
(0 -0.00108028 -0.000198007)
(0 -0.00135 -0.00018111)
(0 -0.0011299 -0.000121747)
(0 -0.00127651 -0.000105716)
(0 -0.00144197 -9.02012e-05)
(0 -0.00100676 -3.03026e-05)
(0 -0.00138533 -2.82158e-05)
(0 -0.00113744 -2.85563e-07)
(0 -0.000985865 4.4265e-06)
(0 -0.00106829 7.54348e-06)
(0 -0.001064 8.55419e-06)
(0 -0.00174314 1.40486e-05)
(0 -0.00128331 1.1054e-05)
(0 -0.00171986 1.53315e-05)
(0 -0.00165641 1.68264e-05)
(0 -0.00191994 2.79346e-05)
(0 -0.00147345 3.35046e-05)
(0 -0.00129852 4.20502e-05)
(0 -0.00198477 7.12297e-05)
(0 -0.00185131 6.64771e-05)
(0 -0.0012357 4.22395e-05)
(0 -0.00163639 4.96647e-05)
(0 -0.00195205 5.68276e-05)
(0 -0.00171603 4.73632e-05)
(0 -0.00126676 3.5768e-05)
(0 -0.00161459 4.69262e-05)
(0 -0.00161247 4.8023e-05)
(0 -0.00170532 5.28756e-05)
(0 -0.00137985 4.43899e-05)
(0 -0.00144797 4.7573e-05)
(0 -0.00144696 4.84805e-05)
(0 -0.0016063 5.47109e-05)
(0 -0.00125583 4.3281e-05)
(0 -0.00125427 4.36773e-05)
(0 -0.00125259 4.39363e-05)
(0 -0.00143841 5.07619e-05)
(0 -0.00179532 6.36049e-05)
(0 -0.00136577 4.85544e-05)
(0 -0.00178983 6.3822e-05)
(0 -0.00124324 4.44136e-05)
(0 -0.00135965 4.8633e-05)
(0 -0.00118803 4.25053e-05)
(0 -0.00177963 6.36965e-05)
(0 -0.00123649 4.42076e-05)
(0 -0.00129125 4.60791e-05)
(0 -0.00141897 5.04097e-05)
(0 -0.00141778 5.00553e-05)
(0 -0.00188899 6.58615e-05)
(0 -0.00157324 5.33442e-05)
(0 -0.00149004 4.67508e-05)
(0 -0.00135048 3.18895e-05)
(0 -0.00177881 2.59092e-05)
(0 -0.00145675 7.45637e-05)
(0 -0.0014518 9.07047e-05)
(0 -0.00135738 6.5244e-05)
(0 -0.00166521 6.8112e-05)
(0 -0.00134694 5.38114e-05)
(0 -0.00151284 6.33937e-05)
(0 -0.00148276 6.17468e-05)
(0 -0.00138665 5.91089e-05)
(0 -0.00190117 8.01637e-05)
(0 -0.00117138 5.02149e-05)
(0 -0.00183425 8.45088e-05)
(0 -0.00129281 6.51208e-05)
(0 -0.00147745 7.66087e-05)
(0 -0.00113574 5.8749e-05)
(0 -0.00111166 6.24814e-05)
(0 -0.00113464 6.35077e-05)
(0 -0.00105818 6.05867e-05)
(0 -0.00138916 8.87214e-05)
(0 -0.00110086 7.41651e-05)
(0 -0.00117598 8.44638e-05)
(0 0 0)
(0 0 0)
(0 0 0)
(0 0 0)
(0 0 0)
(0 0 0)
(0 0 0)
(0 0 0)
(0 0 0)
(0 0 0)
(0 0 0)
(0 0 0)
(0 0 0)
(0 0 0)
(0 0 0)
(0 0 0)
(0 0 0)
(0 0 0)
(0 0 0)
(0 1.8801e-33 0)
(0 -4.52133e-10 -2.67607e-43)
(0 -0.00154515 -6.53798e-15)
(0 -0.00152941 -1.1403e-10)
(0 -0.00142884 -1.06326e-08)
(0 -0.00129611 -1.6855e-06)
(0 -0.00145767 -2.75275e-05)
(0 -0.00177966 -5.53886e-05)
(0 -0.001867 -5.79852e-05)
(0 -0.00190236 -5.0688e-05)
(0 -0.00264631 -5.34041e-05)
(0 -0.00223557 -3.7129e-05)
(0 -0.00252695 -3.28556e-05)
(0 -0.00233983 -2.31359e-05)
(0 -0.00330474 -1.49077e-05)
(0 -0.00210268 -7.28951e-06)
(0 -0.00220116 6.84173e-09)
(0 -0.00253832 2.49191e-06)
(0 -0.00318106 5.18372e-06)
(0 -0.00255096 5.07998e-06)
(0 -0.0022197 4.71542e-06)
(0 -0.00221985 5.31499e-06)
(0 -0.00268415 7.0007e-06)
(0 -0.00221657 6.81118e-06)
(0 -0.00267393 1.1257e-05)
(0 -0.00210349 1.18411e-05)
(0 -0.00331718 2.23324e-05)
(0 -0.00213428 1.41836e-05)
(0 -0.00283661 1.83495e-05)
(0 -0.00316694 2.00565e-05)
(0 -0.0020445 1.10229e-05)
(0 -0.00258085 1.33303e-05)
(0 -0.00192314 9.43573e-06)
(0 -0.00228819 1.20394e-05)
(0 -0.00239283 1.31703e-05)
(0 -0.00196609 1.12053e-05)
(0 -0.00195442 1.17712e-05)
(0 -0.0029786 1.90058e-05)
(0 -0.00222183 1.46199e-05)
(0 -0.00232489 1.57511e-05)
(0 -0.00274407 1.90663e-05)
(0 -0.00181816 1.28916e-05)
(0 -0.00289019 2.09071e-05)
(0 -0.00215352 1.5836e-05)
(0 -0.00285201 2.13139e-05)
(0 -0.00212448 1.60998e-05)
(0 -0.00222073 1.70719e-05)
(0 -0.00279294 2.17916e-05)
(0 -0.00244678 1.93511e-05)
(0 -0.00258081 2.06916e-05)
(0 -0.00227731 1.84958e-05)
(0 -0.0027124 2.234e-05)
(0 -0.00237551 1.98159e-05)
(0 -0.00267189 2.25794e-05)
(0 -0.00220991 1.88694e-05)
(0 -0.00232223 2.0015e-05)
(0 -0.00195936 1.69269e-05)
(0 -0.00162132 1.38176e-05)
(0 -0.00214833 1.72534e-05)
(0 -0.00214107 1.39419e-05)
(0 -0.0019313 7.49936e-06)
(0 -0.00169666 1.94208e-05)
(0 -0.00249005 4.21811e-05)
(0 -0.00180443 2.42278e-05)
(0 -0.00198938 2.15437e-05)
(0 -0.00211647 2.38997e-05)
(0 -0.00205068 2.36336e-05)
(0 -0.00180358 2.09527e-05)
(0 -0.00204341 2.52081e-05)
(0 -0.00155991 1.83226e-05)
(0 -0.00151591 1.97466e-05)
(0 -0.00187677 2.64781e-05)
(0 -0.00218507 3.56235e-05)
(0 -0.00159019 2.64486e-05)
(0 -0.00139477 2.49318e-05)
(0 -0.00172956 3.53494e-05)
(0 -0.00128366 2.69055e-05)
(0 -0.0011693 2.65587e-05)
(0 -0.00169046 4.53079e-05)
(0 -0.00149848 4.71843e-05)
(0 -0.00124328 4.424e-05)
)
;

boundaryField
{
    inlet
    {
        type            fixedValue;
        value           uniform (0 -0.0005 0);
    }
    outlet
    {
        type            fluxCorrectedVelocity;
        phi             phi.gas;
        rho             rho.gas;
        value           uniform (0 0 0);
    }
    walls
    {
        type            fixedValue;
        value           uniform (0 0 0);
    }
}


// ************************************************************************* //
