/*--------------------------------*- C++ -*----------------------------------*\
| =========                 |                                                 |
| \\      /  F ield         | foam-extend: Open Source CFD                    |
|  \\    /   O peration     | Version:     5.0                                |
|   \\  /    A nd           | Web:         http://www.foam-extend.org         |
|    \\/     M anipulation  |                                                 |
\*---------------------------------------------------------------------------*/
FoamFile
{
    version     2.0;
    format      ascii;
    class       volVectorField;
    location    "4000";
    object      U.oil;
}
// * * * * * * * * * * * * * * * * * * * * * * * * * * * * * * * * * * * * * //

dimensions      [0 1 -1 0 0 0 0];

internalField   nonuniform List<vector> 
1000
(
(0 -0.000479299 -5.62971e-06)
(0 -0.000470568 -3.101e-06)
(0 -0.000602459 -2.49834e-06)
(0 -0.00053531 -1.49777e-06)
(0 -0.000595444 -1.1695e-06)
(0 -0.000630527 -8.89451e-07)
(0 -0.000670923 -6.90025e-07)
(0 -0.000502293 -3.81556e-07)
(0 -0.000668834 -3.81218e-07)
(0 -0.000626401 -2.74308e-07)
(0 -0.000417272 -1.45759e-07)
(0 -0.000454912 -1.34196e-07)
(0 -0.000416768 -1.12249e-07)
(0 -0.000416543 -1.12264e-07)
(0 -0.000434408 -1.28189e-07)
(0 -0.000665665 -2.31479e-07)
(0 -0.000586894 -2.53045e-07)
(0 -0.000415309 -2.28791e-07)
(0 -0.00049774 -3.5541e-07)
(0 -0.000432107 -4.01244e-07)
(0 -0.000413222 -4.96652e-07)
(0 -0.000520536 -8.00872e-07)
(0 -0.000547549 -1.06043e-06)
(0 -0.000467305 -1.11411e-06)
(0 -0.00054234 -1.54855e-06)
(0 -0.000570713 -1.89022e-06)
(0 -0.000507066 -1.88077e-06)
(0 -0.000434556 -1.74016e-06)
(0 -0.000431019 -1.79705e-06)
(0 -0.000626895 -2.62975e-06)
(0 -0.000621721 -2.54427e-06)
(0 -0.000420532 -1.63456e-06)
(0 -0.000483294 -1.74514e-06)
(0 -0.000479966 -1.58283e-06)
(0 -0.000533075 -1.58776e-06)
(0 -0.000409597 -1.09746e-06)
(0 -0.000373554 -9.04778e-07)
(0 -0.000387987 -8.64182e-07)
(0 -0.000555308 -1.18021e-06)
(0 -0.00044234 -9.62823e-07)
(0 -0.000366897 -9.16966e-07)
(0 -0.000437756 -1.42048e-06)
(0 -0.000362006 -1.60661e-06)
(0 -0.000505762 -3.03721e-06)
(0 -0.000368622 -2.95749e-06)
(0 -0.000378653 -3.6327e-06)
(0 -0.000545099 -4.93032e-06)
(0 -0.00040081 -4.31524e-06)
(0 -0.000356491 -3.95212e-06)
(0 -0.000451981 -4.23081e-06)
(0 -0.00036012 -2.31866e-06)
(0 -0.000374099 -1.5674e-06)
(0 -0.000337714 -9.17123e-07)
(0 -0.000369684 -7.6115e-07)
(0 -0.000433301 -7.19585e-07)
(0 -0.000349499 -6.23843e-07)
(0 -0.000487228 -1.24812e-06)
(0 -0.000362175 -1.85466e-06)
(0 -0.000418998 -2.29169e-06)
(0 -0.000437026 -6.6664e-07)
(0 -0.000429104 -5.89903e-09)
(0 -0.000377081 -3.30389e-08)
(0 -0.000281041 -1.658e-07)
(0 -0.000354201 -4.35008e-07)
(0 -0.000373525 -5.68009e-07)
(0 -0.000292083 -5.00119e-07)
(0 -0.000372879 -6.74099e-07)
(0 -0.0003193 -6.17678e-07)
(0 -0.000372086 -7.52e-07)
(0 -0.000371592 -7.88307e-07)
(0 -0.000392849 -8.79288e-07)
(0 -0.00031748 -7.67443e-07)
(0 -0.000415797 -1.0973e-06)
(0 -0.000349182 -1.06441e-06)
(0 -0.000347851 -1.30756e-06)
(0 -0.000345802 -1.78174e-06)
(0 -0.000361238 -2.98176e-06)
(0 -0.000353573 -5.64536e-06)
(0 -0.000379263 -7.95693e-06)
(0 -0.000268526 4.56614e-06)
(0 -0.000269343 6.34332e-06)
(0 -0.00023617 2.90284e-06)
(0 -0.000211388 4.68528e-07)
(0 -0.000230854 7.61917e-08)
(0 -0.000201172 -1.59399e-07)
(0 -0.000148769 -3.02754e-07)
(0 -0.000180931 -3.13994e-07)
(0 -0.000114692 4.33139e-08)
(0 -0.000114259 1.53639e-09)
(0 -9.84374e-05 -1.89051e-07)
(0 -0.000132514 -4.78124e-07)
(0 -9.46055e-05 -1.62613e-07)
(0 -7.19267e-05 1.10009e-07)
(0 -7.74746e-05 2.87691e-08)
(0 -7.17991e-05 -7.51004e-08)
(0 -5.11145e-05 2.02475e-08)
(0 -3.84276e-05 1.34025e-07)
(0 -2.60559e-05 1.15527e-07)
(0 -2.52422e-05 -1.96244e-07)
(0 -9.99234e-06 -1.8869e-07)
(0 -0.000646516 -1.76563e-05)
(0 -0.000466869 -7.94477e-06)
(0 -0.00056678 -6.42661e-06)
(0 -0.000534121 -4.2071e-06)
(0 -0.00042118 -2.36327e-06)
(0 -0.000419954 -1.70518e-06)
(0 -0.000628578 -1.86809e-06)
(0 -0.000418385 -9.20288e-07)
(0 -0.000501464 -8.28564e-07)
(0 -0.000527378 -6.699e-07)
(0 -0.000589005 -5.97045e-07)
(0 -0.000526698 -4.51016e-07)
(0 -0.000476294 -3.7253e-07)
(0 -0.000588076 -4.60547e-07)
(0 -0.000587775 -5.04419e-07)
(0 -0.000434188 -4.39597e-07)
(0 -0.000665281 -8.36374e-07)
(0 -0.000498511 -8.02246e-07)
(0 -0.000524134 -1.09586e-06)
(0 -0.000451967 -1.23251e-06)
(0 -0.000551295 -1.95295e-06)
(0 -0.000471303 -2.14645e-06)
(0 -0.000580239 -3.3427e-06)
(0 -0.000516957 -3.68523e-06)
(0 -0.000514256 -4.41261e-06)
(0 -0.000485499 -4.85301e-06)
(0 -0.000459067 -5.15505e-06)
(0 -0.000531335 -6.45266e-06)
(0 -0.000451599 -5.71168e-06)
(0 -0.000626804 -7.9688e-06)
(0 -0.000405319 -5.01798e-06)
(0 -0.000577918 -6.78001e-06)
(0 -0.000509816 -5.54187e-06)
(0 -0.000506288 -5.0122e-06)
(0 -0.00047665 -4.24956e-06)
(0 -0.000375244 -3.00056e-06)
(0 -0.000471632 -3.39753e-06)
(0 -0.000371703 -2.44928e-06)
(0 -0.000403832 -2.51292e-06)
(0 -0.000465785 -2.91535e-06)
(0 -0.000367278 -2.59874e-06)
(0 -0.000438583 -4.0741e-06)
(0 -0.000395971 -5.12504e-06)
(0 -0.000392155 -6.89033e-06)
(0 -0.000500261 -1.23938e-05)
(0 -0.000414192 -1.50598e-05)
(0 -0.000496181 -1.90912e-05)
(0 -0.000503668 -1.78901e-05)
(0 -0.000479721 -1.35827e-05)
(0 -0.000363542 -7.77196e-06)
(0 -0.000336648 -5.4945e-06)
(0 -0.000301671 -3.89249e-06)
(0 -0.000438824 -4.63385e-06)
(0 -0.000272513 -2.44028e-06)
(0 -0.000295661 -2.34628e-06)
(0 -0.000281444 -2.22636e-06)
(0 -0.000322346 -2.96719e-06)
(0 -0.000357815 -4.70643e-06)
(0 -0.000268956 -3.52051e-06)
(0 -0.000268858 -1.68806e-06)
(0 -0.000321259 -1.03818e-06)
(0 -0.000399798 -1.18592e-06)
(0 -0.000375089 -1.3677e-06)
(0 -0.000334962 -1.56189e-06)
(0 -0.000302717 -1.58193e-06)
(0 -0.000423385 -2.37607e-06)
(0 -0.000275892 -1.62905e-06)
(0 -0.000396231 -2.44381e-06)
(0 -0.00037254 -2.38905e-06)
(0 -0.000372131 -2.48914e-06)
(0 -0.000315949 -2.22734e-06)
(0 -0.000300527 -2.27365e-06)
(0 -0.000262596 -2.16106e-06)
(0 -0.00031458 -2.90798e-06)
(0 -0.000369295 -4.06299e-06)
(0 -0.000417407 -5.95637e-06)
(0 -0.000416184 -8.72404e-06)
(0 -0.000311781 -1.11283e-05)
(0 -0.000363322 -1.83122e-05)
(0 -0.000236589 2.57954e-06)
(0 -0.000337027 2.00124e-05)
(0 -0.0002651 8.36224e-06)
(0 -0.000171193 2.09509e-06)
(0 -0.000231816 -5.90926e-07)
(0 -0.000214025 -8.18621e-07)
(0 -0.000128851 -4.45231e-07)
(0 -0.000148763 -8.96479e-07)
(0 -0.000144392 -6.15691e-07)
(0 -0.000150158 -5.25726e-07)
(0 -9.89673e-05 -3.60736e-07)
(0 -8.47912e-05 -2.63213e-07)
(0 -7.15921e-05 -2.19859e-07)
(0 -8.97961e-05 -3.98493e-07)
(0 -9.06653e-05 -6.40722e-07)
(0 -6.53497e-05 -4.98718e-07)
(0 -4.83957e-05 -3.56974e-07)
(0 -4.52286e-05 -4.35231e-07)
(0 -3.62435e-05 -2.77159e-07)
(0 -2.64894e-05 -8.42419e-07)
(0 -9.93574e-06 -5.63277e-07)
(0 -0.000486527 -1.56696e-05)
(0 -0.000485033 -1.10828e-05)
(0 -0.000676464 -1.10349e-05)
(0 -0.000594819 -6.99321e-06)
(0 -0.000420147 -3.58889e-06)
(0 -0.000479124 -2.99322e-06)
(0 -0.000478334 -2.19983e-06)
(0 -0.000501627 -1.71279e-06)
(0 -0.000501158 -1.28759e-06)
(0 -0.000589176 -1.16485e-06)
(0 -0.000455016 -7.18336e-07)
(0 -0.000416906 -5.56332e-07)
(0 -0.000588334 -7.17644e-07)
(0 -0.000526199 -6.43399e-07)
(0 -0.000624605 -8.38255e-07)
(0 -0.000554941 -8.80555e-07)
(0 -0.000525428 -1.03815e-06)
(0 -0.000554205 -1.40676e-06)
(0 -0.00052452 -1.73774e-06)
(0 -0.000473943 -2.05988e-06)
(0 -0.00055196 -3.13899e-06)
(0 -0.000495593 -3.65529e-06)
(0 -0.000470515 -4.43434e-06)
(0 -0.000468591 -5.52456e-06)
(0 -0.000407882 -5.85019e-06)
(0 -0.000422893 -7.13093e-06)
(0 -0.000567843 -1.08283e-05)
(0 -0.000503785 -1.04267e-05)
(0 -0.000632386 -1.36377e-05)
(0 -0.000552876 -1.19602e-05)
(0 -0.000388115 -8.14491e-06)
(0 -0.000439811 -8.70444e-06)
(0 -0.000436396 -7.95985e-06)
(0 -0.000433349 -7.15758e-06)
(0 -0.000393221 -5.81485e-06)
(0 -0.000562185 -7.41345e-06)
(0 -0.000497336 -5.87231e-06)
(0 -0.000424496 -4.54368e-06)
(0 -0.000370064 -3.66998e-06)
(0 -0.000491882 -4.7031e-06)
(0 -0.000588775 -6.03991e-06)
(0 -0.000400249 -5.56389e-06)
(0 -0.00058361 -1.22294e-05)
(0 -0.000357896 -1.32666e-05)
(0 -0.000372355 -1.81698e-05)
(0 -0.000453428 -2.63614e-05)
(0 -0.000401269 -2.23259e-05)
(0 -0.000326882 -1.48287e-05)
(0 -0.000315509 -1.03423e-05)
(0 -0.000359925 -8.98678e-06)
(0 -0.000375395 -7.98669e-06)
(0 -0.00039478 -7.79251e-06)
(0 -0.000330028 -6.00214e-06)
(0 -0.000297055 -4.88961e-06)
(0 -0.000270238 -4.09927e-06)
(0 -0.000281814 -4.06729e-06)
(0 -0.000386877 -5.57891e-06)
(0 -0.000412587 -6.17508e-06)
(0 -0.000412961 -5.81062e-06)
(0 -0.0003098 -3.43388e-06)
(0 -0.000386749 -3.40825e-06)
(0 -0.000411758 -3.27065e-06)
(0 -0.000342595 -2.72054e-06)
(0 -0.000362369 -3.01365e-06)
(0 -0.000279858 -2.4307e-06)
(0 -0.000267619 -2.40472e-06)
(0 -0.000341885 -3.17107e-06)
(0 -0.00032383 -3.08697e-06)
(0 -0.000341746 -3.35934e-06)
(0 -0.000279558 -2.85183e-06)
(0 -0.000256222 -2.7416e-06)
(0 -0.000323564 -3.66521e-06)
(0 -0.000384082 -4.67848e-06)
(0 -0.000255984 -3.42942e-06)
(0 -0.000292518 -4.46206e-06)
(0 -0.000267227 -4.90278e-06)
(0 -0.000280134 -6.58225e-06)
(0 -0.000414546 -1.32918e-05)
(0 -0.000318428 -1.32857e-05)
(0 -0.000292751 -2.44652e-06)
(0 -0.000252279 1.07247e-05)
(0 -0.000221733 7.52894e-06)
(0 -0.00025295 3.88096e-06)
(0 -0.000163522 4.31072e-07)
(0 -0.000166758 -2.60045e-07)
(0 -0.0001683 -4.70785e-07)
(0 -0.000132321 -6.38139e-07)
(0 -0.000109683 -6.64756e-07)
(0 -0.000114086 -6.18614e-07)
(0 -8.96561e-05 -2.37055e-07)
(0 -0.000131531 -2.83813e-07)
(0 -0.000105781 -4.77179e-07)
(0 -8.45152e-05 -1.02729e-06)
(0 -7.88886e-05 -1.03942e-06)
(0 -7.32697e-05 -7.75532e-07)
(0 -5.91364e-05 -6.22858e-07)
(0 -3.66745e-05 -3.15467e-07)
(0 -4.13018e-05 -5.52581e-07)
(0 -2.28355e-05 -3.72344e-07)
(0 -9.28594e-06 -2.95516e-07)
(0 -0.000562292 -1.91816e-05)
(0 -0.000561532 -1.45325e-05)
(0 -0.000420341 -8.11641e-06)
(0 -0.000457677 -6.543e-06)
(0 -0.00055846 -5.89291e-06)
(0 -0.00055772 -4.34315e-06)
(0 -0.000527823 -3.04121e-06)
(0 -0.00045549 -1.95399e-06)
(0 -0.000455219 -1.47171e-06)
(0 -0.000526855 -1.31192e-06)
(0 -0.000625415 -1.24434e-06)
(0 -0.000555759 -9.35292e-07)
(0 -0.00047624 -7.3334e-07)
(0 -0.000476119 -7.36047e-07)
(0 -0.000526095 -8.94665e-07)
(0 -0.00062454 -1.25952e-06)
(0 -0.000499434 -1.25912e-06)
(0 -0.000587265 -1.91176e-06)
(0 -0.000586852 -2.50987e-06)
(0 -0.000622923 -3.52474e-06)
(0 -0.000432746 -3.23875e-06)
(0 -0.000584351 -5.74853e-06)
(0 -0.00047176 -6.02557e-06)
(0 -0.000411228 -6.68825e-06)
(0 -0.000545492 -1.09862e-05)
(0 -0.00046446 -1.11667e-05)
(0 -0.000569088 -1.56442e-05)
(0 -0.000638968 -1.91754e-05)
(0 -0.000431309 -1.3495e-05)
(0 -0.000426953 -1.33507e-05)
(0 -0.000547165 -1.6493e-05)
(0 -0.000614558 -1.73372e-05)
(0 -0.000415646 -1.07169e-05)
(0 -0.000605318 -1.40079e-05)
(0 -0.000530862 -1.09e-05)
(0 -0.000498768 -9.05578e-06)
(0 -0.000446891 -7.21103e-06)
(0 -0.000556453 -8.06908e-06)
(0 -0.00059157 -7.79737e-06)
(0 -0.000384889 -4.54582e-06)
(0 -0.000421512 -4.45935e-06)
(0 -0.000551632 -1.06253e-05)
(0 -0.000391622 -1.47154e-05)
(0 -0.000354237 -1.76747e-05)
(0 -0.000481153 -2.63437e-05)
(0 -0.000313041 -1.46625e-05)
(0 -0.000403328 -1.62454e-05)
(0 -0.000331184 -1.13005e-05)
(0 -0.000322199 -9.88166e-06)
(0 -0.000262963 -7.54963e-06)
(0 -0.000415245 -1.11949e-05)
(0 -0.000280468 -6.97459e-06)
(0 -0.000306415 -7.01495e-06)
(0 -0.000265277 -5.55023e-06)
(0 -0.000264552 -5.13237e-06)
(0 -0.000357378 -6.49691e-06)
(0 -0.00027598 -4.75763e-06)
(0 -0.000404821 -6.665e-06)
(0 -0.000337566 -5.14247e-06)
(0 -0.00035759 -4.79796e-06)
(0 -0.000357557 -4.20971e-06)
(0 -0.000289342 -3.12421e-06)
(0 -0.00040493 -4.21289e-06)
(0 -0.000379559 -3.93749e-06)
(0 -0.000319662 -3.3595e-06)
(0 -0.000379697 -4.0538e-06)
(0 -0.000264246 -2.86987e-06)
(0 -0.000337794 -3.74851e-06)
(0 -0.000276504 -3.15371e-06)
(0 -0.000289814 -3.41643e-06)
(0 -0.000405921 -4.98039e-06)
(0 -0.000380716 -4.90265e-06)
(0 -0.000338584 -4.63957e-06)
(0 -0.000406544 -6.04247e-06)
(0 -0.000265418 -4.35183e-06)
(0 -0.000339765 -6.2669e-06)
(0 -0.000255767 -5.32095e-06)
(0 -0.000363741 -8.05108e-06)
(0 -0.000348638 -5.98345e-06)
(0 -0.00033533 1.54953e-07)
(0 -0.000390124 5.57737e-06)
(0 -0.000268924 5.53913e-06)
(0 -0.000214727 3.38098e-06)
(0 -0.000192999 3.01541e-06)
(0 -0.000181308 1.68572e-06)
(0 -0.000135652 6.65615e-07)
(0 -0.000134344 4.72075e-07)
(0 -0.000111452 5.00361e-08)
(0 -0.000105261 -1.46412e-08)
(0 -0.000104577 -1.22769e-07)
(0 -0.000125976 -9.17977e-07)
(0 -0.000123599 -1.06904e-06)
(0 -6.79892e-05 -6.07251e-07)
(0 -6.41616e-05 -5.97138e-07)
(0 -6.79327e-05 -7.07469e-07)
(0 -4.57507e-05 -3.35729e-07)
(0 -5.50696e-05 -2.68578e-07)
(0 -3.53507e-05 -2.03485e-07)
(0 -2.61716e-05 2.95874e-07)
(0 -9.19373e-06 3.52708e-07)
(0 -0.000501956 -1.75451e-05)
(0 -0.00050176 -1.36768e-05)
(0 -0.000436057 -9.04874e-06)
(0 -0.000477295 -7.43017e-06)
(0 -0.000477036 -5.5254e-06)
(0 -0.000500666 -4.2997e-06)
(0 -0.000556101 -3.54283e-06)
(0 -0.000500357 -2.37675e-06)
(0 -0.000435004 -1.55845e-06)
(0 -0.000555751 -1.53426e-06)
(0 -0.000454649 -1.0033e-06)
(0 -0.000588308 -1.09879e-06)
(0 -0.000666687 -1.14056e-06)
(0 -0.000624962 -1.07529e-06)
(0 -0.00052623 -9.9859e-07)
(0 -0.00062482 -1.41112e-06)
(0 -0.000526078 -1.49226e-06)
(0 -0.000416382 -1.53447e-06)
(0 -0.000454081 -2.2163e-06)
(0 -0.000554701 -3.62037e-06)
(0 -0.000586859 -5.13778e-06)
(0 -0.000622744 -7.29789e-06)
(0 -0.000584919 -9.10492e-06)
(0 -0.000471982 -9.608e-06)
(0 -0.000616447 -1.59739e-05)
(0 -0.000515512 -1.63308e-05)
(0 -0.000462213 -1.70282e-05)
(0 -0.000480143 -1.94789e-05)
(0 -0.000558346 -2.36261e-05)
(0 -0.000586399 -2.46419e-05)
(0 -0.000403527 -1.61858e-05)
(0 -0.000574464 -2.13305e-05)
(0 -0.000455719 -1.52875e-05)
(0 -0.000452493 -1.34548e-05)
(0 -0.000374873 -9.76402e-06)
(0 -0.000596925 -1.3592e-05)
(0 -0.000557385 -1.1192e-05)
(0 -0.000493731 -8.87904e-06)
(0 -0.000590461 -9.74543e-06)
(0 -0.000400681 -6.27964e-06)
(0 -0.000484107 -7.58268e-06)
(0 -0.000366913 -6.3542e-06)
(0 -0.000333653 -8.02512e-06)
(0 -0.00040091 -1.18159e-05)
(0 -0.000405949 -1.51152e-05)
(0 -0.000368329 -1.29391e-05)
(0 -0.000353954 -1.45954e-05)
(0 -0.000295692 -1.0938e-05)
(0 -0.000373676 -1.32878e-05)
(0 -0.000416326 -1.38887e-05)
(0 -0.000293384 -9.16924e-06)
(0 -0.000359079 -1.01062e-05)
(0 -0.000275729 -6.99056e-06)
(0 -0.000377712 -8.67369e-06)
(0 -0.000335041 -7.06656e-06)
(0 -0.000286844 -5.58091e-06)
(0 -0.000376376 -6.80953e-06)
(0 -0.000376504 -6.31251e-06)
(0 -0.000274014 -4.21917e-06)
(0 -0.00040218 -5.60916e-06)
(0 -0.000317689 -4.0219e-06)
(0 -0.000377409 -4.43173e-06)
(0 -0.000302051 -3.38216e-06)
(0 -0.000335775 -3.68067e-06)
(0 -0.000377964 -4.12598e-06)
(0 -0.000302579 -3.32074e-06)
(0 -0.000275286 -3.05923e-06)
(0 -0.000252555 -2.85401e-06)
(0 -0.000404403 -4.682e-06)
(0 -0.000319514 -3.8065e-06)
(0 -0.000264161 -3.25652e-06)
(0 -0.000289554 -3.73229e-06)
(0 -0.000276631 -3.76763e-06)
(0 -0.000304599 -4.42754e-06)
(0 -0.000358818 -5.62645e-06)
(0 -0.000290991 -4.91343e-06)
(0 -0.000408327 -7.30681e-06)
(0 -0.000266723 -4.744e-06)
(0 -0.000406274 -6.11649e-06)
(0 -0.000368385 -2.40987e-06)
(0 -0.000265308 2.83469e-06)
(0 -0.000229876 4.16473e-06)
(0 -0.000187124 2.8657e-06)
(0 -0.000238429 2.55499e-06)
(0 -0.000232163 1.7938e-06)
(0 -0.000176609 1.16961e-06)
(0 -0.000195927 6.03519e-07)
(0 -0.000121454 2.7138e-07)
(0 -0.00015385 5.9692e-08)
(0 -0.000142547 -8.29123e-08)
(0 -9.40684e-05 -2.76695e-07)
(0 -7.6748e-05 -3.46472e-07)
(0 -7.02591e-05 -2.30881e-07)
(0 -7.45689e-05 -5.51781e-07)
(0 -5.75605e-05 -6.41959e-07)
(0 -5.64554e-05 -5.00594e-07)
(0 -3.63675e-05 -2.57952e-07)
(0 -2.73531e-05 -2.14076e-08)
(0 -2.15034e-05 3.23691e-07)
(0 -1.0555e-05 6.88867e-07)
(0 -0.000622556 -2.19313e-05)
(0 -0.0005536 -1.51964e-05)
(0 -0.000453213 -9.46005e-06)
(0 -0.000453491 -7.09244e-06)
(0 -0.000554569 -6.44632e-06)
(0 -0.000525616 -4.52603e-06)
(0 -0.000434356 -2.7727e-06)
(0 -0.000587815 -2.79629e-06)
(0 -0.000454314 -1.62945e-06)
(0 -0.000434629 -1.20101e-06)
(0 -0.000454441 -1.00385e-06)
(0 -0.000624919 -1.16886e-06)
(0 -0.00047617 -8.16632e-07)
(0 -0.000588257 -1.01646e-06)
(0 -0.000454599 -8.68716e-07)
(0 -0.000454637 -1.03787e-06)
(0 -0.000625184 -1.80149e-06)
(0 -0.000666927 -2.5132e-06)
(0 -0.000526569 -2.65121e-06)
(0 -0.000454789 -3.09862e-06)
(0 -0.000416865 -3.87271e-06)
(0 -0.000476258 -6.05781e-06)
(0 -0.000525893 -9.16124e-06)
(0 -0.000553904 -1.31215e-05)
(0 -0.000496369 -1.56264e-05)
(0 -0.000615979 -2.45916e-05)
(0 -0.000443354 -2.11161e-05)
(0 -0.000481428 -2.55722e-05)
(0 -0.000527416 -2.92132e-05)
(0 -0.0005508 -2.99675e-05)
(0 -0.000544048 -2.78328e-05)
(0 -0.000481676 -2.24772e-05)
(0 -0.000477474 -1.98342e-05)
(0 -0.000500464 -1.81208e-05)
(0 -0.000407247 -1.2685e-05)
(0 -0.000387937 -1.0396e-05)
(0 -0.000423512 -9.92209e-06)
(0 -0.000492797 -1.0274e-05)
(0 -0.000465889 -8.93634e-06)
(0 -0.000491268 -9.18307e-06)
(0 -0.000402613 -7.72395e-06)
(0 -0.000368834 -4.25552e-06)
(0 -0.000512288 4.15253e-07)
(0 -0.000361738 6.4708e-07)
(0 -0.000322328 -2.57177e-06)
(0 -0.00045393 -1.13871e-05)
(0 -0.00031126 -1.14487e-05)
(0 -0.000438014 -1.55178e-05)
(0 -0.000355287 -1.24946e-05)
(0 -0.000297612 -9.65656e-06)
(0 -0.000267238 -7.85525e-06)
(0 -0.000253263 -6.8999e-06)
(0 -0.000335552 -8.49942e-06)
(0 -0.000354061 -8.05532e-06)
(0 -0.000300323 -6.17868e-06)
(0 -0.000400076 -7.60515e-06)
(0 -0.000299983 -5.2212e-06)
(0 -0.000300084 -4.77807e-06)
(0 -0.000333695 -4.88425e-06)
(0 -0.000353649 -4.75041e-06)
(0 -0.000334292 -4.14193e-06)
(0 -0.000273737 -3.17273e-06)
(0 -0.000301356 -3.33819e-06)
(0 -0.000287244 -3.10157e-06)
(0 -0.000262496 -2.802e-06)
(0 -0.000274679 -2.93471e-06)
(0 -0.000252029 -2.71064e-06)
(0 -0.000252276 -2.749e-06)
(0 -0.00033668 -3.72965e-06)
(0 -0.000336989 -3.82307e-06)
(0 -0.000252982 -2.95827e-06)
(0 -0.000337635 -4.09802e-06)
(0 -0.000289692 -3.68007e-06)
(0 -0.000406033 -5.4319e-06)
(0 -0.000320983 -4.54099e-06)
(0 -0.000339385 -5.03739e-06)
(0 -0.000382659 -5.86177e-06)
(0 -0.000279227 -4.28309e-06)
(0 -0.000364035 -5.91451e-06)
(0 -0.000271467 -3.91764e-06)
(0 -0.000412917 5.53934e-06)
(0 -0.000234403 3.28207e-06)
(0 -0.000196289 1.95419e-06)
(0 -0.000173636 -2.07733e-07)
(0 -0.000177548 -5.54802e-07)
(0 -0.000179916 -5.12789e-07)
(0 -0.000140396 -3.59588e-07)
(0 -0.000127822 1.51581e-08)
(0 -0.000110704 -2.03716e-07)
(0 -0.000116965 -1.79823e-07)
(0 -0.000112751 1.91376e-07)
(0 -9.64881e-05 -3.59147e-08)
(0 -9.12701e-05 -3.92003e-07)
(0 -6.84273e-05 -4.73315e-07)
(0 -5.2747e-05 -4.14259e-07)
(0 -4.06336e-05 -3.22466e-07)
(0 -4.01419e-05 -2.04812e-07)
(0 -2.89474e-05 -2.28265e-07)
(0 -2.37036e-05 -4.6817e-07)
(0 -1.03893e-05 -4.69721e-07)
(0 -0.000658584 -2.3018e-05)
(0 -0.000430106 -1.13732e-05)
(0 -0.000550657 -1.08219e-05)
(0 -0.000413796 -5.99777e-06)
(0 -0.000473701 -5.0511e-06)
(0 -0.00066407 -5.21188e-06)
(0 -0.000524809 -3.04136e-06)
(0 -0.000525222 -2.26279e-06)
(0 -0.000587364 -1.90512e-06)
(0 -0.00045408 -1.13381e-06)
(0 -0.000475874 -9.49575e-07)
(0 -0.00066642 -1.12623e-06)
(0 -0.000454495 -7.04871e-07)
(0 -0.000555631 -8.69658e-07)
(0 -0.000434953 -7.54818e-07)
(0 -0.000625427 -1.30119e-06)
(0 -0.00055613 -1.46729e-06)
(0 -0.000435422 -1.51165e-06)
(0 -0.000477154 -2.23169e-06)
(0 -0.00050136 -3.2097e-06)
(0 -0.000557536 -4.94746e-06)
(0 -0.000528685 -6.58321e-06)
(0 -0.000478695 -8.4795e-06)
(0 -0.000670006 -1.70927e-05)
(0 -0.000477163 -1.73749e-05)
(0 -0.000414448 -2.02707e-05)
(0 -0.00042715 -2.59009e-05)
(0 -0.000536896 -3.69893e-05)
(0 -0.000431356 -3.0946e-05)
(0 -0.000583102 -4.02804e-05)
(0 -0.000511028 -3.24369e-05)
(0 -0.00045474 -2.58402e-05)
(0 -0.000500738 -2.48953e-05)
(0 -0.000497331 -2.10873e-05)
(0 -0.000387382 -1.37668e-05)
(0 -0.000444152 -1.32575e-05)
(0 -0.00042209 -1.09668e-05)
(0 -0.000402204 -9.17099e-06)
(0 -0.00042082 -8.69949e-06)
(0 -0.000383955 -7.29213e-06)
(0 -0.000384147 -6.45088e-06)
(0 -0.000421739 -4.96244e-06)
(0 -0.000403221 -2.4855e-06)
(0 -0.000380517 -8.54865e-07)
(0 -0.000345574 -9.18506e-07)
(0 -0.000454333 -2.32168e-06)
(0 -0.000337025 -2.72443e-06)
(0 -0.000417177 -5.62603e-06)
(0 -0.000338698 -5.87199e-06)
(0 -0.000329614 -6.0254e-06)
(0 -0.000362409 -7.10095e-06)
(0 -0.000338577 -6.66194e-06)
(0 -0.000251584 -5.01502e-06)
(0 -0.000316134 -6.05713e-06)
(0 -0.000399781 -7.11918e-06)
(0 -0.000272234 -4.52186e-06)
(0 -0.000285037 -4.34648e-06)
(0 -0.000352298 -4.95368e-06)
(0 -0.000299727 -3.91028e-06)
(0 -0.000272746 -3.31832e-06)
(0 -0.000250275 -2.85853e-06)
(0 -0.000273319 -2.96272e-06)
(0 -0.000273612 -2.85986e-06)
(0 -0.000401705 -4.10982e-06)
(0 -0.000262251 -2.65902e-06)
(0 -0.000355167 -3.59931e-06)
(0 -0.000251841 -2.56627e-06)
(0 -0.000318448 -3.27983e-06)
(0 -0.000288421 -3.01172e-06)
(0 -0.00027561 -2.93699e-06)
(0 -0.000289061 -3.1621e-06)
(0 -0.000289406 -3.26838e-06)
(0 -0.000338068 -3.96247e-06)
(0 -0.000320726 -3.91881e-06)
(0 -0.000406871 -5.1896e-06)
(0 -0.000265822 -3.51019e-06)
(0 -0.00040836 -5.41333e-06)
(0 -0.000279134 -3.35029e-06)
(0 -0.000280958 -1.78439e-06)
(0 -0.000367907 5.56244e-07)
(0 -0.000285567 -1.19047e-06)
(0 -0.000332211 1.34774e-06)
(0 -0.000332143 3.29189e-06)
(0 -0.000184768 2.08081e-06)
(0 -0.000161489 1.27936e-06)
(0 -0.000138009 5.55701e-07)
(0 -0.000124328 6.63559e-07)
(0 -0.000123507 6.24237e-07)
(0 -0.000107338 4.66278e-07)
(0 -9.70336e-05 2.18155e-07)
(0 -0.000128392 1.80097e-07)
(0 -0.000104174 -1.54402e-07)
(0 -7.20644e-05 -1.62827e-07)
(0 -6.55211e-05 1.49865e-08)
(0 -5.56122e-05 -1.08422e-07)
(0 -5.08299e-05 3.60865e-10)
(0 -4.32064e-05 -6.68265e-08)
(0 -3.2867e-05 -2.34258e-08)
(0 -2.21142e-05 -2.02094e-07)
(0 -9.32631e-06 -2.08454e-07)
(0 -0.000575467 -1.93566e-05)
(0 -0.000654289 -1.55159e-05)
(0 -0.000579591 -9.73673e-06)
(0 -0.000581652 -6.99324e-06)
(0 -0.000495824 -4.30671e-06)
(0 -0.0004141 -2.61915e-06)
(0 -0.000622188 -2.88749e-06)
(0 -0.000498373 -1.7131e-06)
(0 -0.000415702 -1.07347e-06)
(0 -0.000499201 -9.91185e-07)
(0 -0.000475697 -7.54404e-07)
(0 -0.000555237 -7.4577e-07)
(0 -0.000624895 -7.70757e-07)
(0 -0.000625139 -7.7922e-07)
(0 -0.000476492 -6.59935e-07)
(0 -0.000625692 -1.04193e-06)
(0 -0.000626055 -1.32713e-06)
(0 -0.000501218 -1.40487e-06)
(0 -0.00066895 -2.5418e-06)
(0 -0.000627971 -3.29291e-06)
(0 -0.000671043 -4.93313e-06)
(0 -0.000531075 -5.57823e-06)
(0 -0.000595487 -9.22018e-06)
(0 -0.00048367 -1.17349e-05)
(0 -0.000677164 -2.69396e-05)
(0 -0.000480237 -2.82563e-05)
(0 -0.000495908 -3.87576e-05)
(0 -0.000605364 -5.39187e-05)
(0 -0.000448969 -4.06939e-05)
(0 -0.000383489 -3.17549e-05)
(0 -0.000375651 -2.82669e-05)
(0 -0.000523477 -3.38308e-05)
(0 -0.00058862 -3.21739e-05)
(0 -0.000516514 -2.38103e-05)
(0 -0.000416885 -1.59748e-05)
(0 -0.000397189 -1.28601e-05)
(0 -0.000546276 -1.51306e-05)
(0 -0.000459604 -1.10575e-05)
(0 -0.000436666 -9.41609e-06)
(0 -0.000485443 -9.08979e-06)
(0 -0.000436375 -7.38763e-06)
(0 -0.000361334 -4.91724e-06)
(0 -0.000500925 -5.08478e-06)
(0 -0.000551358 -3.91009e-06)
(0 -0.000323895 8.20031e-09)
(0 -0.000384848 4.6331e-06)
(0 -0.000300097 4.96452e-06)
(0 -0.000367358 2.59349e-06)
(0 -0.000278111 -1.6429e-07)
(0 -0.000346834 -2.30526e-06)
(0 -0.000266733 -2.93587e-06)
(0 -0.000356789 -4.85756e-06)
(0 -0.000316803 -4.61438e-06)
(0 -0.000285083 -4.25234e-06)
(0 -0.000314303 -4.57675e-06)
(0 -0.000259333 -3.50868e-06)
(0 -0.000283985 -3.60196e-06)
(0 -0.000351094 -4.18123e-06)
(0 -0.0003984 -4.4428e-06)
(0 -0.000314931 -3.31433e-06)
(0 -0.000249636 -2.51058e-06)
(0 -0.000352881 -3.42163e-06)
(0 -0.00030033 -2.84052e-06)
(0 -0.000353757 -3.29748e-06)
(0 -0.000354168 -3.29145e-06)
(0 -0.000376725 -3.50917e-06)
(0 -0.000262368 -2.46497e-06)
(0 -0.000335624 -3.19038e-06)
(0 -0.00026296 -2.54053e-06)
(0 -0.000252297 -2.48827e-06)
(0 -0.000275565 -2.78252e-06)
(0 -0.000404661 -4.20667e-06)
(0 -0.000405185 -4.35257e-06)
(0 -0.00028983 -3.23511e-06)
(0 -0.000358558 -4.17035e-06)
(0 -0.000359058 -4.37698e-06)
(0 -0.000265588 -3.39595e-06)
(0 -0.000277036 -3.74696e-06)
(0 -0.000261096 -3.73173e-06)
(0 -0.000382201 -5.06579e-06)
(0 -0.000230427 -4.72493e-07)
(0 -0.000316786 3.01927e-06)
(0 -0.000182632 1.55978e-06)
(0 -0.000202819 3.01638e-06)
(0 -0.000218217 2.16753e-06)
(0 -0.000136042 1.13856e-06)
(0 -0.000158234 9.7252e-07)
(0 -0.00014497 5.50092e-07)
(0 -0.000140926 4.68164e-07)
(0 -0.000137507 -1.22763e-07)
(0 -0.000135207 -1.44056e-07)
(0 -8.25037e-05 -1.78952e-07)
(0 -6.87801e-05 -6.11712e-08)
(0 -8.71205e-05 -3.91164e-07)
(0 -5.07017e-05 -2.92073e-07)
(0 -5.00038e-05 -4.1146e-07)
(0 -4.42106e-05 -4.33123e-07)
(0 -3.79503e-05 -1.27685e-07)
(0 -2.56759e-05 -2.64588e-07)
(0 -1.00776e-05 -6.04566e-08)
(0 -0.000438898 -1.28409e-05)
(0 -0.000422995 -7.59935e-06)
(0 -0.000653198 -7.71194e-06)
(0 -0.000579513 -4.70208e-06)
(0 -0.000412154 -2.3633e-06)
(0 -0.000496056 -2.04628e-06)
(0 -0.000451944 -1.35874e-06)
(0 -0.00043299 -9.6052e-07)
(0 -0.000433511 -7.20895e-07)
(0 -0.000415826 -5.31053e-07)
(0 -0.000475569 -4.84826e-07)
(0 -0.000587811 -5.07493e-07)
(0 -0.000526207 -4.17363e-07)
(0 -0.000666858 -5.35032e-07)
(0 -0.000417005 -3.72307e-07)
(0 -0.000527064 -5.66934e-07)
(0 -0.000626361 -8.59811e-07)
(0 -0.000590095 -1.07413e-06)
(0 -0.000627802 -1.55367e-06)
(0 -0.000457412 -1.56493e-06)
(0 -0.000420373 -2.01086e-06)
(0 -0.000440338 -2.96194e-06)
(0 -0.00056628 -5.36032e-06)
(0 -0.000541883 -8.95561e-06)
(0 -0.000687947 -3.03041e-05)
(0 -0.00047901 -3.76767e-05)
(0 -0.0005022 -4.79089e-05)
(0 -0.000600044 -6.06034e-05)
(0 -0.000470448 -4.61187e-05)
(0 -0.000543295 -4.64172e-05)
(0 -0.000417336 -3.25808e-05)
(0 -0.000458356 -3.05072e-05)
(0 -0.000515872 -2.91827e-05)
(0 -0.000349076 -1.64901e-05)
(0 -0.000479248 -2.00566e-05)
(0 -0.000382477 -1.32546e-05)
(0 -0.000317162 -8.43377e-06)
(0 -0.00032916 -7.23247e-06)
(0 -0.000313281 -6.1745e-06)
(0 -0.0004991 -8.92895e-06)
(0 -0.000354567 -6.10106e-06)
(0 -0.00046398 -7.82679e-06)
(0 -0.000436161 -5.85061e-06)
(0 -0.000490796 -3.60208e-07)
(0 -0.000359515 4.82003e-06)
(0 -0.000301168 4.74306e-06)
(0 -0.000444705 6.02996e-06)
(0 -0.000403498 2.48506e-06)
(0 -0.000260936 1.73141e-07)
(0 -0.00033964 -2.27549e-06)
(0 -0.000401123 -3.85186e-06)
(0 -0.000349917 -4.43783e-06)
(0 -0.000256293 -3.24553e-06)
(0 -0.000325829 -4.00338e-06)
(0 -0.000325154 -3.87695e-06)
(0 -0.00034411 -3.74308e-06)
(0 -0.000278725 -2.75881e-06)
(0 -0.00029307 -2.74547e-06)
(0 -0.000293605 -2.59324e-06)
(0 -0.000326883 -2.74499e-06)
(0 -0.000256326 -2.08556e-06)
(0 -0.000256823 -2.03629e-06)
(0 -0.000257315 -2.01553e-06)
(0 -0.000296457 -2.30746e-06)
(0 -0.000371227 -2.9029e-06)
(0 -0.000283322 -2.23084e-06)
(0 -0.000372489 -2.9603e-06)
(0 -0.000259559 -2.09239e-06)
(0 -0.000284755 -2.33493e-06)
(0 -0.00024958 -2.08947e-06)
(0 -0.000375021 -3.20136e-06)
(0 -0.00026135 -2.28816e-06)
(0 -0.000273737 -2.46407e-06)
(0 -0.000301705 -2.81831e-06)
(0 -0.000302339 -2.94224e-06)
(0 -0.000404028 -4.18061e-06)
(0 -0.000337502 -3.87985e-06)
(0 -0.000320647 -4.57414e-06)
(0 -0.000291641 -6.53773e-06)
(0 -0.000384736 -1.2215e-05)
(0 -0.000297662 2.06125e-06)
(0 -0.000252598 5.55934e-06)
(0 -0.000195936 1.90251e-06)
(0 -0.000214472 2.2745e-07)
(0 -0.000156516 -1.13357e-07)
(0 -0.000162569 -3.04303e-09)
(0 -0.000148393 -4.34396e-07)
(0 -0.000128971 -4.28647e-07)
(0 -0.000167626 -9.8004e-07)
(0 -9.46733e-05 -5.74128e-07)
(0 -0.000139665 -5.19481e-07)
(0 -9.02971e-05 -3.15269e-08)
(0 -9.49624e-05 -2.57935e-07)
(0 -6.496e-05 -4.06746e-07)
(0 -5.52611e-05 -1.66445e-07)
(0 -4.78272e-05 -4.58612e-07)
(0 -3.57548e-05 -4.348e-07)
(0 -3.72658e-05 -2.33691e-07)
(0 -1.99425e-05 -1.59989e-07)
(0 -9.5541e-06 -1.38727e-07)
(0 -0.000556202 -7.28551e-06)
(0 -0.000602969 -4.26388e-06)
(0 -0.00048791 -2.12359e-06)
(0 -0.000546063 -1.58099e-06)
(0 -0.000548748 -1.10454e-06)
(0 -0.000495579 -7.11588e-07)
(0 -0.000552009 -5.75078e-07)
(0 -0.000622134 -4.77064e-07)
(0 -0.000524606 -3.01148e-07)
(0 -0.000623601 -2.74716e-07)
(0 -0.000554752 -1.95014e-07)
(0 -0.000555112 -1.65248e-07)
(0 -0.000624858 -1.70919e-07)
(0 -0.000555735 -1.53842e-07)
(0 -0.000625568 -1.92854e-07)
(0 -0.000476947 -1.77325e-07)
(0 -0.000455653 -2.16445e-07)
(0 -0.000456158 -2.87645e-07)
(0 -0.000528969 -4.53629e-07)
(0 -0.000419623 -4.96164e-07)
(0 -0.000420806 -6.87181e-07)
(0 -0.000633633 -1.39334e-06)
(0 -0.000536146 -1.44104e-06)
(0 -0.000567181 -3.04354e-06)
(0 -0.000413721 -1.05274e-05)
(0 -0.000400065 -2.20079e-05)
(0 -0.000397121 -2.46569e-05)
(0 -0.00034769 -2.04215e-05)
(0 -0.000308124 -1.61564e-05)
(0 -0.00039959 -1.73876e-05)
(0 -0.00031346 -1.25457e-05)
(0 -0.000337394 -1.21278e-05)
(0 -0.000299302 -9.80341e-06)
(0 -0.000416661 -1.11945e-05)
(0 -0.000258469 -6.69973e-06)
(0 -0.000268317 -5.45702e-06)
(0 -0.000309521 -3.98161e-06)
(0 -0.00038892 -3.53285e-06)
(0 -0.000311853 -2.45889e-06)
(0 -0.000271191 -2.26603e-06)
(0 -0.000271012 -2.06874e-06)
(0 -0.000328292 -2.47566e-06)
(0 -0.000271062 -1.6317e-06)
(0 -0.000326343 -5.19095e-07)
(0 -0.000253808 8.61607e-07)
(0 -0.000395525 2.24826e-06)
(0 -0.000249317 6.74368e-07)
(0 -0.000326374 1.75699e-07)
(0 -0.000360323 -4.2811e-07)
(0 -0.000229044 -1.35108e-06)
(0 -0.000287341 -2.08673e-06)
(0 -0.000212543 -1.82268e-06)
(0 -0.000252786 -1.93726e-06)
(0 -0.000265269 -1.93092e-06)
(0 -0.000218963 -1.51922e-06)
(0 -0.00021922 -1.34826e-06)
(0 -0.000337389 -1.78192e-06)
(0 -0.000254161 -1.26893e-06)
(0 -0.000268764 -1.2637e-06)
(0 -0.000320709 -1.43999e-06)
(0 -0.000214813 -9.4065e-07)
(0 -0.000345319 -1.47584e-06)
(0 -0.000260186 -1.10517e-06)
(0 -0.000348493 -1.47269e-06)
(0 -0.000262525 -1.11725e-06)
(0 -0.000277535 -1.18764e-06)
(0 -0.000353079 -1.51706e-06)
(0 -0.000312895 -1.36046e-06)
(0 -0.000333898 -1.46954e-06)
(0 -0.000298085 -1.33389e-06)
(0 -0.000359292 -1.62767e-06)
(0 -0.000318451 -1.47061e-06)
(0 -0.000362592 -1.70621e-06)
(0 -0.000303603 -1.4736e-06)
(0 -0.000323082 -1.6222e-06)
(0 -0.000276117 -1.47201e-06)
(0 -0.00023154 -1.37491e-06)
(0 -0.000311392 -2.2858e-06)
(0 -0.000315789 -3.42688e-06)
(0 -0.000290932 -4.75785e-06)
(0 -0.000251371 -1.07184e-07)