/*--------------------------------*- C++ -*----------------------------------*\
| =========                 |                                                 |
| \\      /  F ield         | foam-extend: Open Source CFD                    |
|  \\    /   O peration     | Version:     5.0                                |
|   \\  /    A nd           | Web:         http://www.foam-extend.org         |
|    \\/     M anipulation  |                                                 |
\*---------------------------------------------------------------------------*/
FoamFile
{
    version     2.0;
    format      ascii;
    class       volVectorField;
    location    "4000";
    object      U.water;
}
// * * * * * * * * * * * * * * * * * * * * * * * * * * * * * * * * * * * * * //

dimensions      [0 1 -1 0 0 0 0];

internalField   nonuniform List<vector> 
1000
(
(0 0 0)
(0 0 0)
(0 0 0)
(0 0 0)
(0 0 0)
(0 0 0)
(0 0 0)
(0 0 0)
(0 0 0)
(0 0 0)
(0 0 0)
(0 0 0)
(0 0 0)
(0 0 0)
(0 0 0)
(0 0 0)
(0 0 0)
(0 0 0)
(0 0 0)
(0 0 0)
(0 0 0)
(0 0 0)
(0 0 0)
(0 0 0)
(0 0 0)
(0 0 0)
(0 0 0)
(0 0 0)
(0 0 0)
(0 0 0)
(0 0 0)
(0 0 0)
(0 0 0)
(0 0 0)
(0 0 0)
(0 0 0)
(0 0 0)
(0 0 0)
(0 0 0)
(0 0 0)
(0 0 0)
(0 0 0)
(0 0 0)
(0 0 0)
(0 0 0)
(0 0 0)
(0 0 0)
(0 0 0)
(0 0 0)
(0 0 0)
(0 0 0)
(0 0 0)
(0 0 0)
(0 0 0)
(0 0 0)
(0 0 0)
(0 0 0)
(0 0 0)
(0 0 0)
(0 0 0)
(0 0 0)
(0 0 0)
(0 0 0)
(0 0 0)
(0 0 0)
(0 0 0)
(0 0 0)
(0 0 0)
(0 0 0)
(0 0 0)
(0 0 0)
(0 0 0)
(0 0 0)
(0 0 0)
(0 1.01553e-28 0)
(0 -4.54168e-11 -3.81315e-30)
(0 -0.00138649 1.0184e-13)
(0 -0.00104439 1.15144e-09)
(0 -0.000654764 8.4429e-08)
(0 -0.000420955 4.33538e-06)
(0 -0.000464304 9.58699e-06)
(0 -0.000492735 6.6702e-06)
(0 -0.000503749 1.98585e-06)
(0 -0.000598174 -4.23997e-07)
(0 -0.000562873 -1.32308e-06)
(0 -0.00045465 -1.66569e-06)
(0 -0.00058898 -2.63381e-06)
(0 -0.000407968 -1.40266e-06)
(0 -0.000441794 -1.41904e-06)
(0 -0.000417047 -1.76235e-06)
(0 -0.000600133 -3.6081e-06)
(0 -0.000467148 -2.95029e-06)
(0 -0.00039681 -2.12821e-06)
(0 -0.000474668 -2.8463e-06)
(0 -0.00049208 -3.54727e-06)
(0 -0.000409043 -3.06139e-06)
(0 -0.000379013 -2.61421e-06)
(0 -0.000350789 -2.25297e-06)
(0 -0.000492773 -5.09702e-06)
(0 -0.000416114 -5.90962e-06)
(0 0 0)
(0 0 0)
(0 0 0)
(0 0 0)
(0 0 0)
(0 0 0)
(0 0 0)
(0 0 0)
(0 0 0)
(0 0 0)
(0 0 0)
(0 0 0)
(0 0 0)
(0 0 0)
(0 0 0)
(0 0 0)
(0 0 0)
(0 0 0)
(0 0 0)
(0 0 0)
(0 0 0)
(0 0 0)
(0 0 0)
(0 0 0)
(0 0 0)
(0 0 0)
(0 0 0)
(0 0 0)
(0 0 0)
(0 0 0)
(0 0 0)
(0 0 0)
(0 0 0)
(0 0 0)
(0 0 0)
(0 0 0)
(0 0 0)
(0 0 0)
(0 0 0)
(0 0 0)
(0 0 0)
(0 0 0)
(0 0 0)
(0 0 0)
(0 0 0)
(0 0 0)
(0 0 0)
(0 0 0)
(0 0 0)
(0 0 0)
(0 0 0)
(0 0 0)
(0 0 0)
(0 0 0)
(0 0 0)
(0 0 0)
(0 0 0)
(0 0 0)
(0 0 0)
(0 0 0)
(0 0 0)
(0 0 0)
(0 0 0)
(0 0 0)
(0 0 0)
(0 0 0)
(0 0 0)
(0 0 0)
(0 0 0)
(0 0 0)
(0 0 0)
(0 0 0)
(0 0 0)
(0 0 0)
(0 0 0)
(0 4.09662e-18 -3.81315e-30)
(0 -5.52391e-06 1.44216e-12)
(0 -0.0011989 6.22496e-08)
(0 -0.000798076 5.47085e-07)
(0 -0.000451962 9.41108e-06)
(0 -0.000483136 3.44639e-05)
(0 -0.000471003 2.09672e-05)
(0 -0.000372819 5.65737e-06)
(0 -0.000557649 -3.1496e-07)
(0 -0.000557786 -3.56525e-06)
(0 -0.000374169 -3.00577e-06)
(0 -0.000468924 -5.03549e-06)
(0 -0.000490788 -5.30627e-06)
(0 -0.000545261 -5.98339e-06)
(0 -0.000393723 -4.60079e-06)
(0 -0.000373534 -4.61927e-06)
(0 -0.000355463 -4.47688e-06)
(0 -0.00049352 -6.8426e-06)
(0 -0.000549693 -8.79952e-06)
(0 -0.000451305 -7.62696e-06)
(0 -0.000399169 -6.67438e-06)
(0 -0.000457734 -7.9391e-06)
(0 -0.000472584 -7.94857e-06)
(0 -0.00048877 -1.17971e-05)
(0 -0.00039385 -1.23407e-05)
(0 0 0)
(0 0 0)
(0 0 0)
(0 0 0)
(0 0 0)
(0 0 0)
(0 0 0)
(0 0 0)
(0 0 0)
(0 0 0)
(0 0 0)
(0 0 0)
(0 0 0)
(0 0 0)
(0 0 0)
(0 0 0)
(0 0 0)
(0 0 0)
(0 0 0)
(0 0 0)
(0 0 0)
(0 0 0)
(0 0 0)
(0 0 0)
(0 0 0)
(0 0 0)
(0 0 0)
(0 0 0)
(0 0 0)
(0 0 0)
(0 0 0)
(0 0 0)
(0 0 0)
(0 0 0)
(0 0 0)
(0 0 0)
(0 0 0)
(0 0 0)
(0 0 0)
(0 0 0)
(0 0 0)
(0 0 0)
(0 0 0)
(0 0 0)
(0 0 0)
(0 0 0)
(0 0 0)
(0 0 0)
(0 0 0)
(0 0 0)
(0 0 0)
(0 0 0)
(0 0 0)
(0 0 0)
(0 0 0)
(0 0 0)
(0 0 0)
(0 0 0)
(0 0 0)
(0 0 0)
(0 0 0)
(0 0 0)
(0 0 0)
(0 0 0)
(0 0 0)
(0 0 0)
(0 0 0)
(0 0 0)
(0 0 0)
(0 0 0)
(0 0 0)
(0 0 0)
(0 0 0)
(0 0 0)
(0 0 0)
(0 0 0)
(0 3.59347e-16 -1.10428e-19)
(0 -5.05086e-05 7.62895e-08)
(0 -0.00112545 -1.64986e-10)
(0 -0.000704706 1.61928e-05)
(0 -0.000379239 4.10006e-05)
(0 -0.00034346 1.76578e-05)
(0 -0.000462028 8.88915e-06)
(0 -0.000357426 5.87031e-07)
(0 -0.000410514 -2.26091e-06)
(0 -0.000453979 -3.7254e-06)
(0 -0.000392584 -4.34388e-06)
(0 -0.000359756 -4.72154e-06)
(0 -0.000408771 -5.70745e-06)
(0 -0.000356349 -4.63803e-06)
(0 -0.00056194 -7.28312e-06)
(0 -0.000490684 -6.84779e-06)
(0 -0.000433358 -8.19086e-06)
(0 -0.000449905 -9.81629e-06)
(0 -0.000467907 -1.0176e-05)
(0 -0.00043336 -9.42183e-06)
(0 -0.000332754 -7.03909e-06)
(0 -0.00046461 -1.0597e-05)
(0 -0.000364244 -9.12109e-06)
(0 -0.000322852 -9.12637e-06)
(0 0 0)
(0 0 0)
(0 0 0)
(0 0 0)
(0 0 0)
(0 0 0)
(0 0 0)
(0 0 0)
(0 0 0)
(0 0 0)
(0 0 0)
(0 0 0)
(0 0 0)
(0 0 0)
(0 0 0)
(0 0 0)
(0 0 0)
(0 0 0)
(0 0 0)
(0 0 0)
(0 0 0)
(0 0 0)
(0 0 0)
(0 0 0)
(0 0 0)
(0 0 0)
(0 0 0)
(0 0 0)
(0 0 0)
(0 0 0)
(0 0 0)
(0 0 0)
(0 0 0)
(0 0 0)
(0 0 0)
(0 0 0)
(0 0 0)
(0 0 0)
(0 0 0)
(0 0 0)
(0 0 0)
(0 0 0)
(0 0 0)
(0 0 0)
(0 0 0)
(0 0 0)
(0 0 0)
(0 0 0)
(0 0 0)
(0 0 0)
(0 0 0)
(0 0 0)
(0 0 0)
(0 0 0)
(0 0 0)
(0 0 0)
(0 0 0)
(0 0 0)
(0 0 0)
(0 0 0)
(0 0 0)
(0 0 0)
(0 0 0)
(0 0 0)
(0 0 0)
(0 0 0)
(0 0 0)
(0 0 0)
(0 0 0)
(0 0 0)
(0 0 0)
(0 0 0)
(0 0 0)
(0 0 0)
(0 0 0)
(0 0 0)
(0 2.74254e-18 -1.97034e-38)
(0 -5.17933e-06 -1.10179e-12)
(0 -0.00122056 -2.05905e-07)
(0 -0.000820217 -2.46511e-06)
(0 -0.000498847 -3.80653e-06)
(0 -0.000376379 1.13779e-06)
(0 -0.000376626 8.47677e-07)
(0 -0.000400432 -2.84604e-07)
(0 -0.000422655 -1.61123e-06)
(0 -0.000355754 -2.486e-06)
(0 -0.000388171 -3.27556e-06)
(0 -0.000356127 -3.66103e-06)
(0 -0.000370143 -4.03127e-06)
(0 -0.000402899 -4.46122e-06)
(0 -0.000522898 -7.92384e-06)
(0 -0.000551488 -1.00109e-05)
(0 -0.000342504 -6.96357e-06)
(0 -0.000368602 -8.18238e-06)
(0 -0.00044327 -1.0712e-05)
(0 -0.000357556 -8.52896e-06)
(0 -0.00051048 -1.22189e-05)
(0 -0.000415598 -1.077e-05)
(0 -0.000427953 -9.71411e-06)
(0 -0.000322746 -5.52191e-06)
(0 0 0)
(0 0 0)
(0 0 0)
(0 0 0)
(0 0 0)
(0 0 0)
(0 0 0)
(0 0 0)
(0 0 0)
(0 0 0)
(0 0 0)
(0 0 0)
(0 0 0)
(0 0 0)
(0 0 0)
(0 0 0)
(0 0 0)
(0 0 0)
(0 0 0)
(0 0 0)
(0 0 0)
(0 0 0)
(0 0 0)
(0 0 0)
(0 0 0)
(0 0 0)
(0 0 0)
(0 0 0)
(0 0 0)
(0 0 0)
(0 0 0)
(0 0 0)
(0 0 0)
(0 0 0)
(0 0 0)
(0 0 0)
(0 0 0)
(0 0 0)
(0 0 0)
(0 0 0)
(0 0 0)
(0 0 0)
(0 0 0)
(0 0 0)
(0 0 0)
(0 0 0)
(0 0 0)
(0 0 0)
(0 0 0)
(0 0 0)
(0 0 0)
(0 0 0)
(0 0 0)
(0 0 0)
(0 0 0)
(0 0 0)
(0 0 0)
(0 0 0)
(0 0 0)
(0 0 0)
(0 0 0)
(0 0 0)
(0 0 0)
(0 0 0)
(0 0 0)
(0 0 0)
(0 0 0)
(0 0 0)
(0 0 0)
(0 0 0)
(0 0 0)
(0 0 0)
(0 0 0)
(0 0 0)
(0 0 0)
(0 2.6861e-29 0)
(0 -1.69957e-11 -9.59551e-31)
(0 -0.00135355 -4.6686e-14)
(0 -0.000994374 -2.45715e-09)
(0 -0.000611157 -2.58467e-07)
(0 -0.000387066 7.80072e-07)
(0 -0.00037923 3.12873e-06)
(0 -0.000383511 1.02943e-06)
(0 -0.000548414 -1.28607e-06)
(0 -0.000581144 -3.16355e-06)
(0 -0.000482372 -3.19484e-06)
(0 -0.000572803 -4.96463e-06)
(0 -0.000389394 -3.74386e-06)
(0 -0.000528234 -5.94031e-06)
(0 -0.000522859 -6.53083e-06)
(0 -0.000378751 -5.63931e-06)
(0 -0.000345675 -5.89774e-06)
(0 -0.000357715 -6.17769e-06)
(0 -0.00042692 -8.51134e-06)
(0 -0.000381154 -8.86841e-06)
(0 -0.000435795 -1.044e-05)
(0 -0.000350569 -8.61762e-06)
(0 -0.00035935 -8.67295e-06)
(0 -0.000431077 -9.33663e-06)
(0 -0.000470166 -7.72362e-06)
(0 0 0)
(0 0 0)
(0 0 0)
(0 0 0)
(0 0 0)
(0 0 0)
(0 0 0)
(0 0 0)
(0 0 0)
(0 0 0)
(0 0 0)
(0 0 0)
(0 0 0)
(0 0 0)
(0 0 0)
(0 0 0)
(0 0 0)
(0 0 0)
(0 0 0)
(0 0 0)
(0 0 0)
(0 0 0)
(0 0 0)
(0 0 0)
(0 0 0)
(0 0 0)
(0 0 0)
(0 0 0)
(0 0 0)
(0 0 0)
(0 0 0)
(0 0 0)
(0 0 0)
(0 0 0)
(0 0 0)
(0 0 0)
(0 0 0)
(0 0 0)
(0 0 0)
(0 0 0)
(0 0 0)
(0 0 0)
(0 0 0)
(0 0 0)
(0 0 0)
(0 0 0)
(0 0 0)
(0 0 0)
(0 0 0)
(0 0 0)
(0 0 0)
(0 0 0)
(0 0 0)
(0 0 0)
(0 0 0)
(0 0 0)
(0 0 0)
(0 0 0)
(0 0 0)
(0 0 0)
(0 0 0)
(0 0 0)
(0 0 0)
(0 0 0)
(0 0 0)
(0 0 0)
(0 0 0)
(0 0 0)
(0 0 0)
(0 0 0)
(0 0 0)
(0 0 0)
(0 0 0)
(0 0 0)
(0 0 0)
(0 0 0)
(0 5.00837e-20 -9.59551e-31)
(0 -9.05722e-07 5.90151e-13)
(0 -0.00122325 2.42361e-07)
(0 -0.000825176 1.5739e-06)
(0 -0.00050037 1.04848e-05)
(0 -0.000338755 7.8108e-06)
(0 -0.000351961 3.65687e-06)
(0 -0.000374242 1.80627e-07)
(0 -0.00043063 -2.5687e-06)
(0 -0.000476898 -4.18379e-06)
(0 -0.000408399 -4.29084e-06)
(0 -0.000406683 -4.13675e-06)
(0 -0.000386505 -4.71494e-06)
(0 -0.000444122 -6.04361e-06)
(0 -0.000465265 -5.91093e-06)
(0 -0.000437182 -6.00078e-06)
(0 -0.000455645 -7.36861e-06)
(0 -0.000386018 -7.24415e-06)
(0 -0.000348065 -7.14926e-06)
(0 -0.000328783 -6.91937e-06)
(0 -0.000406686 -8.08443e-06)
(0 -0.000397933 -7.77018e-06)
(0 -0.000488284 -1.07165e-05)
(0 -0.000469989 -1.22074e-05)
(0 0 0)
(0 0 0)
(0 0 0)
(0 0 0)
(0 0 0)
(0 0 0)
(0 0 0)
(0 0 0)
(0 0 0)
(0 0 0)
(0 0 0)
(0 0 0)
(0 0 0)
(0 0 0)
(0 0 0)
(0 0 0)
(0 0 0)
(0 0 0)
(0 0 0)
(0 0 0)
(0 0 0)
(0 0 0)
(0 0 0)
(0 0 0)
(0 0 0)
(0 0 0)
(0 0 0)
(0 0 0)
(0 0 0)
(0 0 0)
(0 0 0)
(0 0 0)
(0 0 0)
(0 0 0)
(0 0 0)
(0 0 0)
(0 0 0)
(0 0 0)
(0 0 0)
(0 0 0)
(0 0 0)
(0 0 0)
(0 0 0)
(0 0 0)
(0 0 0)
(0 0 0)
(0 0 0)
(0 0 0)
(0 0 0)
(0 0 0)
(0 0 0)
(0 0 0)
(0 0 0)
(0 0 0)
(0 0 0)
(0 0 0)
(0 0 0)
(0 0 0)
(0 0 0)
(0 0 0)
(0 0 0)
(0 0 0)
(0 0 0)
(0 0 0)
(0 0 0)
(0 0 0)
(0 0 0)
(0 0 0)
(0 0 0)
(0 0 0)
(0 0 0)
(0 0 0)
(0 0 0)
(0 0 0)
(0 0 0)
(0 0 0)
(0 8.69889e-21 -5.8503e-40)
(0 -3.89945e-07 -4.53497e-13)
(0 -0.00125823 -3.76654e-07)
(0 -0.000860721 -5.89037e-06)
(0 -0.000500539 -7.35363e-06)
(0 -0.000446294 -1.01993e-05)
(0 -0.000524871 -3.74733e-06)
(0 -0.000361667 -1.48326e-06)
(0 -0.000366546 -2.0942e-06)
(0 -0.000354252 -3.09385e-06)
(0 -0.000354996 -3.19516e-06)
(0 -0.00038621 -3.54999e-06)
(0 -0.000368497 -3.63654e-06)
(0 -0.000366803 -4.1937e-06)
(0 -0.000521552 -6.35654e-06)
(0 -0.000459973 -6.71653e-06)
(0 -0.000357015 -5.96176e-06)
(0 -0.000368487 -6.22586e-06)
(0 -0.000363062 -6.73836e-06)
(0 -0.000391015 -7.30168e-06)
(0 -0.000402196 -7.805e-06)
(0 -0.000392619 -7.47505e-06)
(0 -0.000382609 -8.64814e-06)
(0 -0.000353428 -9.55903e-06)
(0 0 0)
(0 0 0)
(0 0 0)
(0 0 0)
(0 0 0)
(0 0 0)
(0 0 0)
(0 0 0)
(0 0 0)
(0 0 0)
(0 0 0)
(0 0 0)
(0 0 0)
(0 0 0)
(0 0 0)
(0 0 0)
(0 0 0)
(0 0 0)
(0 0 0)
(0 0 0)
(0 0 0)
(0 0 0)
(0 0 0)
(0 0 0)
(0 0 0)
(0 0 0)
(0 0 0)
(0 0 0)
(0 0 0)
(0 0 0)
(0 0 0)
(0 0 0)
(0 0 0)
(0 0 0)
(0 0 0)
(0 0 0)
(0 0 0)
(0 0 0)
(0 0 0)
(0 0 0)
(0 0 0)
(0 0 0)
(0 0 0)
(0 0 0)
(0 0 0)
(0 0 0)
(0 0 0)
(0 0 0)
(0 0 0)
(0 0 0)
(0 0 0)
(0 0 0)
(0 0 0)
(0 0 0)
(0 0 0)
(0 0 0)
(0 0 0)
(0 0 0)
(0 0 0)
(0 0 0)
(0 0 0)
(0 0 0)
(0 0 0)
(0 0 0)
(0 0 0)
(0 0 0)
(0 0 0)
(0 0 0)
(0 0 0)
(0 0 0)
(0 0 0)
(0 0 0)
(0 0 0)
(0 0 0)
(0 0 0)
(0 1.952e-30 0)
(0 -6.97861e-12 -7.56025e-32)
(0 -0.00134787 -3.04312e-14)
(0 -0.000986051 -1.43841e-09)
(0 -0.000605766 -4.3814e-07)
(0 -0.000371142 5.43838e-07)
(0 -0.000496292 3.39511e-06)
(0 -0.000364609 -4.88198e-07)
(0 -0.00046416 -1.60857e-06)
(0 -0.000548922 -2.61853e-06)
(0 -0.000382714 -2.10035e-06)
(0 -0.000484417 -3.23997e-06)
(0 -0.000480916 -3.90766e-06)
(0 -0.000504621 -4.43073e-06)
(0 -0.000530461 -5.99166e-06)
(0 -0.000559836 -6.75192e-06)
(0 -0.000380485 -4.92222e-06)
(0 -0.000360934 -4.63932e-06)
(0 -0.000510503 -7.63422e-06)
(0 -0.000351375 -5.70004e-06)
(0 -0.000416451 -7.72698e-06)
(0 -0.00045479 -9.50601e-06)
(0 -0.000502078 -1.00723e-05)
(0 -0.000488202 -1.12261e-05)
(0 -0.000415935 -1.03409e-05)
(0 0 0)
(0 0 0)
(0 0 0)
(0 0 0)
(0 0 0)
(0 0 0)
(0 0 0)
(0 0 0)
(0 0 0)
(0 0 0)
(0 0 0)
(0 0 0)
(0 0 0)
(0 0 0)
(0 0 0)
(0 0 0)
(0 0 0)
(0 0 0)
(0 0 0)
(0 0 0)
(0 0 0)
(0 0 0)
(0 0 0)
(0 0 0)
(0 0 0)
(0 0 0)
(0 0 0)
(0 0 0)
(0 0 0)
(0 0 0)
(0 0 0)
(0 0 0)
(0 0 0)
(0 0 0)
(0 0 0)
(0 0 0)
(0 0 0)
(0 0 0)
(0 0 0)
(0 0 0)
(0 0 0)
(0 0 0)
(0 0 0)
(0 0 0)
(0 0 0)
(0 0 0)
(0 0 0)
(0 0 0)
(0 0 0)
(0 0 0)
(0 0 0)
(0 0 0)
(0 0 0)
(0 0 0)
(0 0 0)
(0 0 0)
(0 0 0)
(0 0 0)
(0 0 0)
(0 0 0)
(0 0 0)
(0 0 0)
(0 0 0)
(0 0 0)
(0 0 0)
(0 0 0)
(0 0 0)
(0 0 0)
(0 0 0)
(0 0 0)
(0 0 0)
(0 0 0)
(0 0 0)
(0 0 0)
(0 0 0)
(0 0 0)
(0 3.91344e-21 -7.56025e-32)
(0 -2.20601e-07 2.48932e-13)
(0 -0.00123398 2.04023e-07)
(0 -0.000837745 1.94181e-06)
(0 -0.000481951 1.16676e-05)
(0 -0.000357981 1.4633e-05)
(0 -0.000351581 5.31681e-06)
(0 -0.000446402 5.64009e-07)
(0 -0.000372947 -1.30542e-06)
(0 -0.000427069 -1.8478e-06)
(0 -0.000425207 -2.88541e-06)
(0 -0.00040319 -3.30784e-06)
(0 -0.000558263 -6.111e-06)
(0 -0.000348179 -4.40652e-06)
(0 -0.000549522 -6.80296e-06)
(0 -0.000390812 -4.01647e-06)
(0 -0.000450101 -5.06865e-06)
(0 -0.000348844 -4.97984e-06)
(0 -0.00034395 -4.62534e-06)
(0 -0.000353417 -6.11265e-06)
(0 -0.000331546 -6.87119e-06)
(0 -0.000436891 -8.8005e-06)
(0 -0.000347346 -7.47468e-06)
(0 -0.000371881 -9.00312e-06)
(0 0 0)
(0 0 0)
(0 0 0)
(0 0 0)
(0 0 0)
(0 0 0)
(0 0 0)
(0 0 0)
(0 0 0)
(0 0 0)
(0 0 0)
(0 0 0)
(0 0 0)
(0 0 0)
(0 0 0)
(0 0 0)
(0 0 0)
(0 0 0)
(0 0 0)
(0 0 0)
(0 0 0)
(0 0 0)
(0 0 0)
(0 0 0)
(0 0 0)
(0 0 0)
(0 0 0)
(0 0 0)
(0 0 0)
(0 0 0)
(0 0 0)
(0 0 0)
(0 0 0)
(0 0 0)
(0 0 0)
(0 0 0)
(0 0 0)
(0 0 0)
(0 0 0)
(0 0 0)
(0 0 0)
(0 0 0)
(0 0 0)
(0 0 0)
(0 0 0)
(0 0 0)
(0 0 0)
(0 0 0)
(0 0 0)
(0 0 0)
(0 0 0)
(0 0 0)
(0 0 0)
(0 0 0)
(0 0 0)
(0 0 0)
(0 0 0)
(0 0 0)
(0 0 0)
(0 0 0)
(0 0 0)
(0 0 0)
(0 0 0)
(0 0 0)
(0 0 0)
(0 0 0)
(0 0 0)
(0 0 0)
(0 0 0)
(0 0 0)
(0 0 0)
(0 0 0)
(0 0 0)
(0 0 0)
(0 0 0)
(0 0 0)
(0 8.73792e-30 0)
(0 -1.11014e-11 -1.22465e-22)
(0 -0.00132874 8.08909e-10)
(0 -0.000957922 9.59644e-08)
(0 -0.000568104 1.73207e-06)
(0 -0.000402859 6.78084e-06)
(0 -0.00032004 3.44685e-06)
(0 -0.000371017 1.27087e-07)
(0 -0.000410941 -6.68883e-07)
(0 -0.000411475 -1.1386e-06)
(0 -0.000373284 -1.57444e-06)
(0 -0.000434416 -2.01973e-06)
(0 -0.000341572 -2.44605e-06)
(0 -0.000341503 -2.33954e-06)
(0 -0.000434238 -3.03583e-06)
(0 -0.000518787 -2.7795e-06)
(0 -0.000388467 -2.60624e-06)
(0 -0.000351148 -2.55227e-06)
(0 -0.000448796 -2.92257e-06)
(0 -0.000344453 -2.98506e-06)
(0 -0.000325328 -3.28274e-06)
(0 -0.000488625 -4.75862e-06)
(0 -0.000451671 -4.06905e-06)
(0 -0.000392951 -4.21035e-06)
)
;

boundaryField
{
    inlet
    {
        type            fixedValue;
        value           uniform (0 -0.0005 0);
    }
    outlet
    {
        type            fluxCorrectedVelocity;
        phi             phi.water;
        rho             rho.water;
        value           uniform (0 0 0);
    }
    walls
    {
        type            fixedValue;
        value           uniform (0 0 0);
    }
}


// ************************************************************************* //
