/*--------------------------------*- C++ -*----------------------------------*\
| =========                 |                                                 |
| \\      /  F ield         | foam-extend: Open Source CFD                    |
|  \\    /   O peration     | Version:     5.0                                |
|   \\  /    A nd           | Web:         http://www.foam-extend.org         |
|    \\/     M anipulation  |                                                 |
\*---------------------------------------------------------------------------*/
FoamFile
{
    version     2.0;
    format      ascii;
    class       surfaceScalarField;
    location    "1";
    object      phi;
}
// * * * * * * * * * * * * * * * * * * * * * * * * * * * * * * * * * * * * * //

dimensions      [0 3 -1 0 0 0 0];

internalField   nonuniform List<scalar> 
99
(
1.22391e-06
1.22426e-06
1.22559e-06
1.22541e-06
1.22532e-06
1.22002e-06
1.22428e-06
1.22415e-06
1.22376e-06
1.22408e-06
1.22314e-06
1.22582e-06
1.22421e-06
1.22235e-06
1.22073e-06
1.2221e-06
1.22082e-06
1.22041e-06
1.22223e-06
1.21918e-06
1.22051e-06
1.22161e-06
1.22074e-06
1.22085e-06
1.21988e-06
1.2212e-06
1.22024e-06
1.21995e-06
1.22052e-06
1.22003e-06
1.22041e-06
1.21973e-06
1.21887e-06
1.2198e-06
1.2198e-06
1.2205e-06
1.2198e-06
1.22096e-06
1.22003e-06
1.22073e-06
1.22096e-06
1.22143e-06
1.22073e-06
1.22073e-06
1.2219e-06
1.22073e-06
1.22143e-06
1.22213e-06
1.2212e-06
1.22259e-06
1.22166e-06
1.22236e-06
1.22283e-06
1.22329e-06
1.22446e-06
1.22283e-06
1.22376e-06
1.22422e-06
1.22353e-06
1.22283e-06
1.22376e-06
1.22422e-06
1.22469e-06
1.22539e-06
1.22469e-06
1.22422e-06
1.22515e-06
1.22399e-06
1.22469e-06
1.22539e-06
1.22446e-06
1.22446e-06
1.22539e-06
1.22422e-06
1.22539e-06
1.22422e-06
1.22585e-06
1.22515e-06
1.22515e-06
1.22539e-06
1.22469e-06
1.22515e-06
1.22492e-06
1.22492e-06
1.22515e-06
1.22469e-06
1.22492e-06
1.22515e-06
1.22446e-06
1.22585e-06
1.22492e-06
1.22655e-06
1.22632e-06
1.22539e-06
1.22702e-06
1.22632e-06
1.22632e-06
1.22609e-06
1.22655e-06
)
;

boundaryField
{
    inlet
    {
        type            calculated;
        value           uniform -1.225e-06;
    }
    outlet
    {
        type            calculated;
        value           uniform 1.22748e-06;
    }
    yzfaces
    {
        type            empty;
    }
}


// ************************************************************************* //
