/*--------------------------------*- C++ -*----------------------------------*\
| =========                 |                                                 |
| \\      /  F ield         | foam-extend: Open Source CFD                    |
|  \\    /   O peration     | Version:     5.0                                |
|   \\  /    A nd           | Web:         http://www.foam-extend.org         |
|    \\/     M anipulation  |                                                 |
\*---------------------------------------------------------------------------*/
FoamFile
{
    version     2.0;
    format      ascii;
    class       volScalarField;
    location    "1";
    object      XH2O;
}
// * * * * * * * * * * * * * * * * * * * * * * * * * * * * * * * * * * * * * //

dimensions      [0 0 0 0 0 0 0];

internalField   nonuniform List<scalar> 
100
(
0.568105
0.304793
1.15197
0.152183
3.04395
1.36487
4.09367
35.392
8.11383
-304.502
7718.11
69502.7
212343
363725
394202
43762.6
311.541
0.160611
6.08707e-06
1.6916e-11
3.3399e-18
4.83166e-26
5.06483e-35
3.73704e-45
2.0066e-56
7.59339e-69
2.04043e-82
3.87698e-97
5.20109e-113
4.89301e-130
3.21815e-148
1.47511e-167
4.70206e-188
1.02829e-209
1.58613e-232
1.65492e-256
1.21528e-281
6.01477e-308
0
0
0
0
0
0
0
0
0
0
0
0
0
0
0
0
0
0
0
0
0
0
0
0
0
0
0
0
0
0
0
0
0
0
0
0
0
0
0
0
0
0
0
0
0
0
0
0
0
0
0
0
0
0
0
0
0
0
0
0
0
0
)
;

boundaryField
{
    inlet
    {
        type            fixedValue;
        value           uniform 0.5;
    }
    outlet
    {
        type            zeroGradient;
    }
    yzfaces
    {
        type            empty;
    }
}


// ************************************************************************* //
