/*--------------------------------*- C++ -*----------------------------------*\
| =========                 |                                                 |
| \\      /  F ield         | foam-extend: Open Source CFD                    |
|  \\    /   O peration     | Version:     5.0                                |
|   \\  /    A nd           | Web:         http://www.foam-extend.org         |
|    \\/     M anipulation  |                                                 |
\*---------------------------------------------------------------------------*/
FoamFile
{
    version     2.0;
    format      ascii;
    class       surfaceScalarField;
    location    "4";
    object      phi;
}
// * * * * * * * * * * * * * * * * * * * * * * * * * * * * * * * * * * * * * //

dimensions      [0 3 -1 0 0 0 0];

internalField   nonuniform List<scalar> 
99
(
1.22025e-06
1.22691e-06
1.22022e-06
1.22073e-06
1.23216e-06
1.22596e-06
1.22372e-06
1.24031e-06
1.22228e-06
1.22742e-06
1.2259e-06
1.22474e-06
1.22215e-06
1.22601e-06
1.22473e-06
1.2261e-06
1.22354e-06
1.22051e-06
1.22235e-06
1.22045e-06
1.22448e-06
1.22334e-06
1.22114e-06
1.2183e-06
1.22858e-06
1.22758e-06
1.2275e-06
1.22036e-06
1.23177e-06
1.22619e-06
1.22841e-06
1.22941e-06
1.22473e-06
1.23306e-06
1.23323e-06
1.23322e-06
1.23328e-06
1.23605e-06
1.2337e-06
1.23609e-06
1.23147e-06
1.23714e-06
1.2363e-06
1.23443e-06
1.23625e-06
1.23728e-06
1.23788e-06
1.23666e-06
1.23635e-06
1.23756e-06
1.23462e-06
1.23627e-06
1.2337e-06
1.23521e-06
1.23638e-06
1.23679e-06
1.23502e-06
1.23535e-06
1.23674e-06
1.23728e-06
1.23669e-06
1.23586e-06
1.23447e-06
1.2367e-06
1.23509e-06
1.23729e-06
1.23781e-06
1.23875e-06
1.23714e-06
1.24024e-06
1.23944e-06
1.23387e-06
1.23722e-06
1.23786e-06
1.23575e-06
1.23749e-06
1.2341e-06
1.23825e-06
1.23492e-06
1.23876e-06
1.23636e-06
1.23718e-06
1.23686e-06
1.23668e-06
1.23652e-06
1.23521e-06
1.23577e-06
1.23619e-06
1.23555e-06
1.23523e-06
1.2349e-06
1.23417e-06
1.23532e-06
1.23486e-06
1.23452e-06
1.23535e-06
1.23505e-06
1.2345e-06
1.23574e-06
)
;

boundaryField
{
    inlet
    {
        type            calculated;
        value           uniform -1.225e-06;
    }
    outlet
    {
        type            calculated;
        value           uniform 1.23635e-06;
    }
    yzfaces
    {
        type            empty;
    }
}


// ************************************************************************* //
