/*--------------------------------*- C++ -*----------------------------------*\
| =========                 |                                                 |
| \\      /  F ield         | foam-extend: Open Source CFD                    |
|  \\    /   O peration     | Version:     5.0                                |
|   \\  /    A nd           | Web:         http://www.foam-extend.org         |
|    \\/     M anipulation  |                                                 |
\*---------------------------------------------------------------------------*/
FoamFile
{
    version     2.0;
    format      ascii;
    class       volScalarField;
    location    "6";
    object      CO2.gas;
}
// * * * * * * * * * * * * * * * * * * * * * * * * * * * * * * * * * * * * * //

dimensions      [0 0 0 0 0 0 0];

internalField   nonuniform List<scalar> 
100
(
0.135429
0.118597
0.107743
0.100544
0.0950169
0.090805
0.0873038
0.0841261
0.0807739
0.0782325
0.0755365
0.0736013
0.0718369
0.0701738
0.0687575
0.0673246
0.066038
0.0648063
0.0636765
0.0627303
0.0617528
0.060658
0.059629
0.0586778
0.0577823
0.056908
0.056057
0.0555569
0.0548785
0.0542791
0.0535936
0.0529764
0.0524737
0.0520105
0.0515393
0.0509987
0.0504389
0.0498309
0.0493433
0.0488125
0.0483649
0.0478164
0.0473806
0.0469432
0.0464566
0.0460495
0.0456152
0.0451949
0.0447715
0.0443771
0.0439786
0.0436996
0.0433233
0.0430297
0.0426826
0.0423592
0.0420794
0.0417503
0.0414065
0.0410473
0.0407081
0.0404283
0.0401819
0.0398472
0.039559
0.0392543
0.0389395
0.0386918
0.0384201
0.0381765
0.0379408
0.0376819
0.0373693
0.0371124
0.0368918
0.0365915
0.0363484
0.0360651
0.0357962
0.0355957
0.0353726
0.0351698
0.0349897
0.0348108
0.0345909
0.0343662
0.0340867
0.0338514
0.0336154
0.0333969
0.0332099
0.032976
0.0327715
0.0325555
0.0323348
0.032093
0.0318536
0.0316197
0.031348
0.0310787
)
;

boundaryField
{
    inlet
    {
        type            fixedValue;
        value           uniform 0.2;
    }
    outlet
    {
        type            zeroGradient;
    }
    yzfaces
    {
        type            empty;
    }
}


// ************************************************************************* //
