/*--------------------------------*- C++ -*----------------------------------*\
| =========                 |                                                 |
| \\      /  F ield         | foam-extend: Open Source CFD                    |
|  \\    /   O peration     | Version:     5.0                                |
|   \\  /    A nd           | Web:         http://www.foam-extend.org         |
|    \\/     M anipulation  |                                                 |
\*---------------------------------------------------------------------------*/
FoamFile
{
    version     2.0;
    format      ascii;
    class       volScalarField;
    location    "7";
    object      alpha.gas;
}
// * * * * * * * * * * * * * * * * * * * * * * * * * * * * * * * * * * * * * //

dimensions      [0 0 0 0 0 0 0];

internalField   nonuniform List<scalar> 
100
(
0.0885513
0.087182
0.0857492
0.0845008
0.0831951
0.0820051
0.0807202
0.0795717
0.078406
0.0772924
0.07613
0.0751197
0.0739908
0.0729922
0.0718782
0.0709908
0.0699397
0.0690312
0.0680236
0.0671848
0.0663269
0.0655062
0.0646859
0.0639158
0.0631653
0.0623495
0.0616438
0.0608931
0.0602157
0.0595519
0.0589297
0.058294
0.0576868
0.0570428
0.0564164
0.0558989
0.0553388
0.0547592
0.0542577
0.0537548
0.0532599
0.0527405
0.0522397
0.0517823
0.0513372
0.050881
0.0504135
0.0499594
0.0496102
0.0491645
0.0487973
0.048367
0.0479797
0.0475677
0.0471874
0.0467957
0.0464076
0.0460435
0.0457015
0.0453569
0.045064
0.0447234
0.044416
0.0441056
0.0437958
0.043461
0.0431447
0.0428222
0.0425477
0.0422682
0.0419908
0.0417123
0.0414124
0.0411713
0.0409019
0.0406115
0.0403596
0.0401024
0.0398448
0.0395806
0.0393484
0.039106
0.0388412
0.0385794
0.0383584
0.0381188
0.0378868
0.0376624
0.0374269
0.0372002
0.0370109
0.0367592
0.0365591
0.0363601
0.0361317
0.0359436
0.0357559
0.0355803
0.0354126
0.0352962
)
;

boundaryField
{
    inlet
    {
        type            fixedValue;
        value           uniform 0.2;
    }
    outlet
    {
        type            zeroGradient;
    }
    yzfaces
    {
        type            empty;
    }
}


// ************************************************************************* //
