/*--------------------------------*- C++ -*----------------------------------*\
| =========                 |                                                 |
| \\      /  F ield         | foam-extend: Open Source CFD                    |
|  \\    /   O peration     | Version:     5.0                                |
|   \\  /    A nd           | Web:         http://www.foam-extend.org         |
|    \\/     M anipulation  |                                                 |
\*---------------------------------------------------------------------------*/
FoamFile
{
    version     2.0;
    format      ascii;
    class       volScalarField;
    location    "7";
    object      YH2O;
}
// * * * * * * * * * * * * * * * * * * * * * * * * * * * * * * * * * * * * * //

dimensions      [0 0 0 0 0 0 0];

internalField   nonuniform List<scalar> 
100
(
0.0023285
-0.00498403
0.00256931
-0.00352106
0.00098015
-0.00243856
0.00313282
-0.00181769
-0.00364683
0.00315672
-0.00869859
0.00759841
-0.00154473
0.00106893
-0.00267157
0.00204229
0.000386896
0.00527226
-0.00172035
0.00282428
-0.000500556
0.00297391
0.00134957
0.000525519
-0.00319315
0.00278307
-0.00326544
2.65636e-05
-0.00129808
-0.00192179
-0.00507923
0.000217389
-0.00645137
0.00125879
-0.00740574
0.00352143
-0.00801025
0.00449492
-0.010218
0.0038952
-0.00983679
0.00545097
-0.008784
0.00743887
-0.0109075
0.00543556
-0.00816023
0.00450385
-0.00678761
0.0067427
-0.00649767
0.00638072
-0.00581048
0.00342837
-0.00479765
0.00342908
-0.00209634
0.00341074
-0.00175677
0.00170004
-0.000832737
0.000849105
-0.00232498
0.00144242
-0.00151617
0.000989699
0.000817121
-0.00245889
0.000926999
-0.00236993
0.000827837
-0.00201173
-0.000988295
-0.000703879
-0.00154575
-0.000526308
-0.00109063
0.000293045
-0.00100228
-5.64758e-05
-0.000110602
-0.000733966
0.000567029
0.000168541
-0.00023955
0.000266253
0.0014835
0.000230312
0.00163872
0.000826644
0.000433933
-0.000512919
-3.24272e-05
-1.7134e-05
-0.000192805
-1.43506e-05
0.000437233
-0.0001722
0.000947882
0.000216018
)
;

boundaryField
{
    inlet
    {
        type            calculated;
        value           uniform 0;
    }
    outlet
    {
        type            calculated;
        value           uniform 0.000216018;
    }
    yzfaces
    {
        type            empty;
    }
}


// ************************************************************************* //
