/*--------------------------------*- C++ -*----------------------------------*\
| =========                 |                                                 |
| \\      /  F ield         | foam-extend: Open Source CFD                    |
|  \\    /   O peration     | Version:     5.0                                |
|   \\  /    A nd           | Web:         http://www.foam-extend.org         |
|    \\/     M anipulation  |                                                 |
\*---------------------------------------------------------------------------*/
FoamFile
{
    version     2.0;
    format      ascii;
    class       surfaceScalarField;
    location    "10";
    object      phi;
}
// * * * * * * * * * * * * * * * * * * * * * * * * * * * * * * * * * * * * * //

dimensions      [0 3 -1 0 0 0 0];

internalField   nonuniform List<scalar> 
99
(
1.22549e-06
1.22541e-06
1.22516e-06
1.22423e-06
1.22541e-06
1.22614e-06
1.22547e-06
1.22459e-06
1.22465e-06
1.22332e-06
1.22431e-06
1.22462e-06
1.22633e-06
1.22433e-06
1.2242e-06
1.2243e-06
1.22417e-06
1.22405e-06
1.22325e-06
1.22244e-06
1.22492e-06
1.22086e-06
1.22476e-06
1.22469e-06
1.22229e-06
1.22178e-06
1.22456e-06
1.22241e-06
1.22383e-06
1.22008e-06
1.22197e-06
1.22295e-06
1.22324e-06
1.22028e-06
1.22205e-06
1.22315e-06
1.22197e-06
1.22086e-06
1.22173e-06
1.22227e-06
1.22208e-06
1.22226e-06
1.22224e-06
1.22447e-06
1.22284e-06
1.22237e-06
1.22296e-06
1.22429e-06
1.22279e-06
1.22145e-06
1.22504e-06
1.21979e-06
1.22047e-06
1.21103e-06
1.22289e-06
1.20656e-06
1.20175e-06
1.18553e-06
1.18023e-06
1.18505e-06
1.19931e-06
1.21072e-06
1.19411e-06
1.20789e-06
1.20771e-06
1.19287e-06
1.21442e-06
1.19993e-06
1.1992e-06
1.18486e-06
1.17735e-06
1.1774e-06
1.17004e-06
1.14745e-06
1.15537e-06
1.16288e-06
1.15461e-06
1.15478e-06
1.16923e-06
1.14734e-06
1.16191e-06
1.1621e-06
1.16979e-06
1.14752e-06
1.11728e-06
1.13302e-06
1.15528e-06
1.14735e-06
1.13948e-06
1.16941e-06
1.16904e-06
1.19136e-06
1.19118e-06
1.19954e-06
1.19963e-06
1.21421e-06
1.22221e-06
1.19826e-06
1.22806e-06
)
;

boundaryField
{
    inlet
    {
        type            calculated;
        value           uniform -1.225e-06;
    }
    outlet
    {
        type            calculated;
        value           uniform 1.26554e-06;
    }
    yzfaces
    {
        type            empty;
    }
}


// ************************************************************************* //
