/*--------------------------------*- C++ -*----------------------------------*\
| =========                 |                                                 |
| \\      /  F ield         | foam-extend: Open Source CFD                    |
|  \\    /   O peration     | Version:     5.0                                |
|   \\  /    A nd           | Web:         http://www.foam-extend.org         |
|    \\/     M anipulation  |                                                 |
\*---------------------------------------------------------------------------*/
FoamFile
{
    version     2.0;
    format      ascii;
    class       volScalarField;
    location    "2";
    object      alpha.gas;
}
// * * * * * * * * * * * * * * * * * * * * * * * * * * * * * * * * * * * * * //

dimensions      [0 0 0 0 0 0 0];

internalField   nonuniform List<scalar> 
100
(
0.0728077
0.070427
0.0682138
0.066045
0.0640149
0.0619755
0.0601737
0.0583796
0.0566063
0.0549047
0.0535049
0.0520282
0.0506275
0.0493624
0.048081
0.0468596
0.0457627
0.0446636
0.0436528
0.0426596
0.0417201
0.0407805
0.0399301
0.0390879
0.0382679
0.0374481
0.0367056
0.035951
0.0352553
0.0345858
0.0338844
0.033232
0.0325897
0.0319438
0.0313546
0.0307482
0.0301863
0.0295836
0.0290478
0.0284921
0.0279529
0.0274048
0.0268848
0.0263326
0.025818
0.0253017
0.0247667
0.024248
0.0237395
0.0232428
0.0227138
0.0222043
0.0216943
0.0211687
0.0206612
0.0201329
0.0196127
0.019089
0.0185685
0.0180413
0.0175038
0.0169798
0.0164524
0.0159356
0.0154169
0.0149046
0.0144164
0.0139354
0.0134731
0.0130447
0.0126319
0.0122506
0.0119181
0.0116157
0.011341
0.0111081
0.0109077
0.0107378
0.0105948
0.0104762
0.0103792
0.0102932
0.0102313
0.0101856
0.0101404
0.0101085
0.0100784
0.0100636
0.010048
0.010032
0.0100266
0.0100197
0.0100167
0.0100094
0.0100058
0.0100064
0.0100017
0.0100066
0.0100011
0.00999651
)
;

boundaryField
{
    inlet
    {
        type            fixedValue;
        value           uniform 0.2;
    }
    outlet
    {
        type            zeroGradient;
    }
    yzfaces
    {
        type            empty;
    }
}


// ************************************************************************* //
