/*--------------------------------*- C++ -*----------------------------------*\
| =========                 |                                                 |
| \\      /  F ield         | foam-extend: Open Source CFD                    |
|  \\    /   O peration     | Version:     5.0                                |
|   \\  /    A nd           | Web:         http://www.foam-extend.org         |
|    \\/     M anipulation  |                                                 |
\*---------------------------------------------------------------------------*/
FoamFile
{
    version     2.0;
    format      ascii;
    class       volScalarField;
    location    "2";
    object      YCO2;
}
// * * * * * * * * * * * * * * * * * * * * * * * * * * * * * * * * * * * * * //

dimensions      [0 0 0 0 0 0 0];

internalField   nonuniform List<scalar> 
100
(
0.996644
1.00405
0.996482
1.00349
0.996032
1.00167
1.00349
0.997751
1.00024
0.998402
0.999653
1.00284
0.997715
1.00244
0.999604
0.999687
0.99968
1.00004
0.998882
1.00032
0.999503
0.999712
0.999112
0.999785
0.999811
1.00062
0.999969
1.00068
1.0001
0.999596
1.00111
0.998533
0.997653
0.995165
0.9921
0.983832
0.975422
0.963466
0.945269
0.923596
0.89502
0.859765
0.818624
0.770109
0.71616
0.656087
0.592866
0.52784
0.461084
0.39603
0.333692
0.275568
0.222752
0.176181
0.136217
0.102754
0.0756502
0.0542275
0.0378278
0.0256504
0.0168617
0.0107534
0.00663983
0.00396301
0.0022819
0.00126673
0.000676793
0.000347813
0.000171697
8.14308e-05
3.70708e-05
1.62279e-05
6.83498e-06
2.77352e-06
1.08754e-06
4.13106e-07
1.52348e-07
5.47566e-08
1.92482e-08
6.62911e-09
2.24563e-09
7.49851e-10
2.4772e-10
8.10166e-11
2.63034e-11
8.48564e-12
2.72535e-12
8.72109e-13
2.78228e-13
8.86439e-14
2.82126e-14
8.97289e-15
2.85735e-15
9.10491e-16
2.91607e-16
9.401e-17
3.06256e-17
1.00835e-17
3.47437e-18
9.83271e-19
)
;

boundaryField
{
    inlet
    {
        type            fixedValue;
        value           uniform 1;
    }
    outlet
    {
        type            zeroGradient;
    }
    yzfaces
    {
        type            empty;
    }
}


// ************************************************************************* //
