/*--------------------------------*- C++ -*----------------------------------*\
| =========                 |                                                 |
| \\      /  F ield         | foam-extend: Open Source CFD                    |
|  \\    /   O peration     | Version:     5.0                                |
|   \\  /    A nd           | Web:         http://www.foam-extend.org         |
|    \\/     M anipulation  |                                                 |
\*---------------------------------------------------------------------------*/
FoamFile
{
    version     2.0;
    format      ascii;
    class       surfaceScalarField;
    location    "7";
    object      phi;
}
// * * * * * * * * * * * * * * * * * * * * * * * * * * * * * * * * * * * * * //

dimensions      [0 3 -1 0 0 0 0];

internalField   nonuniform List<scalar> 
99
(
1.22489e-06
1.22504e-06
1.22518e-06
1.22553e-06
1.22479e-06
1.22439e-06
1.22418e-06
1.22544e-06
1.22445e-06
1.22398e-06
1.22312e-06
1.22275e-06
1.22349e-06
1.22302e-06
1.22354e-06
1.2234e-06
1.22381e-06
1.22374e-06
1.2231e-06
1.22338e-06
1.22332e-06
1.22414e-06
1.22381e-06
1.22457e-06
1.22351e-06
1.2238e-06
1.22406e-06
1.224e-06
1.22335e-06
1.2229e-06
1.22332e-06
1.224e-06
1.22343e-06
1.22393e-06
1.22364e-06
1.23679e-06
1.22189e-06
1.17719e-06
1.20699e-06
1.2368e-06
1.2517e-06
1.20699e-06
1.2219e-06
1.2219e-06
1.2368e-06
1.2368e-06
1.2517e-06
1.20699e-06
1.2517e-06
1.2517e-06
1.2815e-06
1.2368e-06
1.2219e-06
1.2219e-06
1.2517e-06
1.2815e-06
1.2964e-06
1.2964e-06
1.2815e-06
1.2666e-06
1.2964e-06
1.2815e-06
1.2666e-06
1.2815e-06
1.2219e-06
1.2666e-06
1.2219e-06
1.19209e-06
1.19209e-06
1.19209e-06
1.14739e-06
1.14739e-06
1.17719e-06
1.14739e-06
1.17719e-06
1.17719e-06
1.11759e-06
1.17719e-06
1.17719e-06
1.16229e-06
1.16229e-06
1.14739e-06
1.10269e-06
1.16229e-06
1.13249e-06
1.08778e-06
1.10269e-06
1.08778e-06
1.10269e-06
1.13249e-06
1.11759e-06
1.10269e-06
1.11759e-06
1.11759e-06
1.07288e-06
1.08778e-06
1.08778e-06
1.10269e-06
1.04308e-06
)
;

boundaryField
{
    inlet
    {
        type            calculated;
        value           uniform -1.225e-06;
    }
    outlet
    {
        type            calculated;
        value           uniform 1.10269e-06;
    }
    yzfaces
    {
        type            empty;
    }
}


// ************************************************************************* //
