/*--------------------------------*- C++ -*----------------------------------*\
| =========                 |                                                 |
| \\      /  F ield         | foam-extend: Open Source CFD                    |
|  \\    /   O peration     | Version:     5.0                                |
|   \\  /    A nd           | Web:         http://www.foam-extend.org         |
|    \\/     M anipulation  |                                                 |
\*---------------------------------------------------------------------------*/
FoamFile
{
    version     2.0;
    format      ascii;
    class       volVectorField;
    location    "7";
    object      U.gas;
}
// * * * * * * * * * * * * * * * * * * * * * * * * * * * * * * * * * * * * * //

dimensions      [0 1 -1 0 0 0 0];

internalField   nonuniform List<vector> 
100
(
(7.77186e-05 0 0)
(0.000173874 0 0)
(0.000263153 0 0)
(0.000349131 0 0)
(0.000434205 0 0)
(0.000518155 0 0)
(0.000601652 0 0)
(0.000683948 0 0)
(0.000765694 0 0)
(0.000847446 0 0)
(0.000929534 0 0)
(0.00101183 0 0)
(0.00109661 0 0)
(0.00118164 0 0)
(0.00126811 0 0)
(0.00135161 0 0)
(0.00143922 0 0)
(0.00152621 0 0)
(0.00161517 0 0)
(0.00170544 0 0)
(0.00179794 0 0)
(0.00189368 0 0)
(0.00199096 0 0)
(0.00209439 0 0)
(0.00220186 0 0)
(0.00231588 0 0)
(0.0024441 0 0)
(0.00258672 0 0)
(0.00275431 0 0)
(0.00296106 0 0)
(0.00323517 0 0)
(0.00364051 0 0)
(0.00434329 0 0)
(0.00604712 0 0)
(0.0116232 0 0)
(0.00527103 0 0)
(0.00501696 0 0)
(0.00489609 0 0)
(0.00486569 0 0)
(0.00498733 0 0)
(0.00507856 0 0)
(0.00501774 0 0)
(0.00495692 0 0)
(0.00498733 0 0)
(0.00501774 0 0)
(0.00504815 0 0)
(0.00507856 0 0)
(0.00501774 0 0)
(0.00501774 0 0)
(0.00510897 0 0)
(0.00516979 0 0)
(0.00513938 0 0)
(0.00501774 0 0)
(0.00498733 0 0)
(0.00504815 0 0)
(0.00516979 0 0)
(0.00526102 0 0)
(0.00529143 0 0)
(0.00526102 0 0)
(0.0052002 0 0)
(0.00523061 0 0)
(0.00526102 0 0)
(0.0052002 0 0)
(0.0052002 0 0)
(0.00510897 0 0)
(0.00507856 0 0)
(0.00507856 0 0)
(0.00492651 0 0)
(0.00486569 0 0)
(0.00486569 0 0)
(0.00477445 0 0)
(0.00468322 0 0)
(0.00474404 0 0)
(0.00474404 0 0)
(0.00474404 0 0)
(0.00480486 0 0)
(0.00468322 0 0)
(0.00468322 0 0)
(0.00480486 0 0)
(0.00477445 0 0)
(0.00474404 0 0)
(0.00471363 0 0)
(0.00459199 0 0)
(0.0046224 0 0)
(0.00468322 0 0)
(0.00453117 0 0)
(0.00447035 0 0)
(0.00447035 0 0)
(0.00447035 0 0)
(0.00456158 0 0)
(0.00459199 0 0)
(0.00453117 0 0)
(0.00453117 0 0)
(0.00456158 0 0)
(0.00447035 0 0)
(0.00440953 0 0)
(0.00443994 0 0)
(0.00447035 0 0)
(0.00437912 0 0)
(0.00437912 0 0)
)
;

boundaryField
{
    inlet
    {
        type            fixedValue;
        value           uniform (0 0 0);
    }
    outlet
    {
        type            zeroGradient;
    }
    yzfaces
    {
        type            empty;
    }
}


// ************************************************************************* //
