/*--------------------------------*- C++ -*----------------------------------*\
| =========                 |                                                 |
| \\      /  F ield         | foam-extend: Open Source CFD                    |
|  \\    /   O peration     | Version:     5.0                                |
|   \\  /    A nd           | Web:         http://www.foam-extend.org         |
|    \\/     M anipulation  |                                                 |
\*---------------------------------------------------------------------------*/
FoamFile
{
    version     2.0;
    format      ascii;
    class       volScalarField;
    location    "7";
    object      alpha.gas;
}
// * * * * * * * * * * * * * * * * * * * * * * * * * * * * * * * * * * * * * //

dimensions      [0 0 0 0 0 0 0];

internalField   nonuniform List<scalar> 
100
(
0.0884274
0.0870013
0.0856815
0.0843141
0.0829684
0.0816973
0.0804902
0.079223
0.078051
0.076941
0.0757626
0.0745679
0.0735421
0.0726545
0.0716182
0.0705597
0.0695603
0.0687171
0.0677192
0.0668535
0.0659696
0.0651889
0.0643635
0.0635303
0.0627367
0.062006
0.0612684
0.0605299
0.0598709
0.0591887
0.0585149
0.0578752
0.0572063
0.0566347
0.0560617
0.0554871
0.0548985
0.0543598
0.053864
0.0533805
0.0528642
0.0523704
0.0518155
0.0513983
0.0509159
0.0505402
0.0500595
0.0495636
0.0491426
0.048734
0.0483107
0.0478952
0.0475297
0.0472087
0.0468176
0.0464414
0.0460865
0.0457359
0.0454136
0.04505
0.0447365
0.0443737
0.0440488
0.0437201
0.0434082
0.0431128
0.0427749
0.0425117
0.0421909
0.0418806
0.0415916
0.0412888
0.0410455
0.0407628
0.0405196
0.0402241
0.0399647
0.0397154
0.0394894
0.0392077
0.0389595
0.0386979
0.0384729
0.0382037
0.0379765
0.0377335
0.0374908
0.0372349
0.0370372
0.0367933
0.036571
0.0363451
0.0361178
0.0358948
0.0356784
0.0354643
0.03526
0.0351094
0.0349657
0.0348309
)
;

boundaryField
{
    inlet
    {
        type            fixedValue;
        value           uniform 0.2;
    }
    outlet
    {
        type            zeroGradient;
    }
    yzfaces
    {
        type            empty;
    }
}


// ************************************************************************* //
