/*--------------------------------*- C++ -*----------------------------------*\
| =========                 |                                                 |
| \\      /  F ield         | foam-extend: Open Source CFD                    |
|  \\    /   O peration     | Version:     5.0                                |
|   \\  /    A nd           | Web:         http://www.foam-extend.org         |
|    \\/     M anipulation  |                                                 |
\*---------------------------------------------------------------------------*/
FoamFile
{
    version     2.0;
    format      ascii;
    class       volVectorField;
    location    "7";
    object      U.gas;
}
// * * * * * * * * * * * * * * * * * * * * * * * * * * * * * * * * * * * * * //

dimensions      [0 1 -1 0 0 0 0];

internalField   nonuniform List<vector> 
100
(
(0.0112949 0 0)
(0.0114574 0 0)
(0.0115938 0 0)
(0.0117526 0 0)
(0.0119235 0 0)
(0.0120841 0 0)
(0.0122377 0 0)
(0.0123846 0 0)
(0.0125114 0 0)
(0.0126107 0 0)
(0.0127341 0 0)
(0.0128908 0 0)
(0.0130456 0 0)
(0.0131735 0 0)
(0.0132995 0 0)
(0.0134177 0 0)
(0.0135645 0 0)
(0.0136734 0 0)
(0.0138227 0 0)
(0.0139871 0 0)
(0.0141482 0 0)
(0.0142851 0 0)
(0.0144192 0 0)
(0.0145621 0 0)
(0.0147125 0 0)
(0.0148386 0 0)
(0.0149584 0 0)
(0.0151113 0 0)
(0.0152465 0 0)
(0.015371 0 0)
(0.0155014 0 0)
(0.0156322 0 0)
(0.0157546 0 0)
(0.0158303 0 0)
(0.0159121 0 0)
(0.0160306 0 0)
(0.0161521 0 0)
(0.0162572 0 0)
(0.0163574 0 0)
(0.0164176 0 0)
(0.0164929 0 0)
(0.0165992 0 0)
(0.0167469 0 0)
(0.0168417 0 0)
(0.016951 0 0)
(0.0170206 0 0)
(0.0171133 0 0)
(0.0172409 0 0)
(0.0173543 0 0)
(0.0174516 0 0)
(0.0175326 0 0)
(0.0176403 0 0)
(0.0177696 0 0)
(0.0178244 0 0)
(0.0178722 0 0)
(0.0179562 0 0)
(0.0180581 0 0)
(0.0181476 0 0)
(0.0182008 0 0)
(0.0182832 0 0)
(0.0183425 0 0)
(0.0184124 0 0)
(0.0184975 0 0)
(0.0185794 0 0)
(0.0186249 0 0)
(0.0186685 0 0)
(0.018757 0 0)
(0.0188047 0 0)
(0.0188729 0 0)
(0.0189523 0 0)
(0.0190196 0 0)
(0.0190941 0 0)
(0.0191386 0 0)
(0.0191984 0 0)
(0.0192571 0 0)
(0.0193347 0 0)
(0.0193928 0 0)
(0.0194358 0 0)
(0.0194621 0 0)
(0.0195246 0 0)
(0.0195675 0 0)
(0.0196202 0 0)
(0.0196732 0 0)
(0.0197363 0 0)
(0.0197649 0 0)
(0.019813 0 0)
(0.0198457 0 0)
(0.0199016 0 0)
(0.0199318 0 0)
(0.0199856 0 0)
(0.0200575 0 0)
(0.0201095 0 0)
(0.0201566 0 0)
(0.0202106 0 0)
(0.0202434 0 0)
(0.0202803 0 0)
(0.0203279 0 0)
(0.020342 0 0)
(0.0203263 0 0)
(0.020308 0 0)
)
;

boundaryField
{
    inlet
    {
        type            fixedValue;
        value           uniform (0.005 0 0);
    }
    outlet
    {
        type            zeroGradient;
    }
    yzfaces
    {
        type            empty;
    }
}


// ************************************************************************* //
