/*--------------------------------*- C++ -*----------------------------------*\
| =========                 |                                                 |
| \\      /  F ield         | foam-extend: Open Source CFD                    |
|  \\    /   O peration     | Version:     5.0                                |
|   \\  /    A nd           | Web:         http://www.foam-extend.org         |
|    \\/     M anipulation  |                                                 |
\*---------------------------------------------------------------------------*/
FoamFile
{
    version     2.0;
    format      ascii;
    class       volVectorField;
    location    "7";
    object      U.water;
}
// * * * * * * * * * * * * * * * * * * * * * * * * * * * * * * * * * * * * * //

dimensions      [0 1 -1 0 0 0 0];

internalField   nonuniform List<vector> 
100
(
(5.69437e-06 0 0)
(2.63102e-05 0 0)
(4.289e-05 0 0)
(5.3195e-05 0 0)
(7.42369e-05 0 0)
(9.87574e-05 0 0)
(0.000112103 0 0)
(0.000127729 0 0)
(0.000153519 0 0)
(0.00016509 0 0)
(0.000170571 0 0)
(0.000196777 0 0)
(0.000235568 0 0)
(0.000247769 0 0)
(0.00024705 0 0)
(0.000263176 0 0)
(0.000294582 0 0)
(0.000309292 0 0)
(0.000321698 0 0)
(0.000346688 0 0)
(0.000369117 0 0)
(0.00038848 0 0)
(0.00039897 0 0)
(0.00041698 0 0)
(0.00044129 0 0)
(0.000461415 0 0)
(0.000475271 0 0)
(0.00049717 0 0)
(0.000518313 0 0)
(0.00053235 0 0)
(0.000551343 0 0)
(0.000568079 0 0)
(0.00058943 0 0)
(0.000611456 0 0)
(0.000624453 0 0)
(0.000639363 0 0)
(0.000658274 0 0)
(0.000680205 0 0)
(0.000699358 0 0)
(0.00071123 0 0)
(0.000724305 0 0)
(0.000737262 0 0)
(0.000759785 0 0)
(0.000781718 0 0)
(0.000800425 0 0)
(0.000815222 0 0)
(0.000820226 0 0)
(0.000842169 0 0)
(0.000866221 0 0)
(0.000882373 0 0)
(0.000896966 0 0)
(0.000917716 0 0)
(0.000942745 0 0)
(0.000955657 0 0)
(0.000963483 0 0)
(0.000981713 0 0)
(0.00100096 0 0)
(0.00101911 0 0)
(0.00103215 0 0)
(0.00104749 0 0)
(0.00106284 0 0)
(0.00107666 0 0)
(0.00109549 0 0)
(0.00111201 0 0)
(0.00112925 0 0)
(0.00114174 0 0)
(0.00115975 0 0)
(0.0011759 0 0)
(0.00118691 0 0)
(0.0012058 0 0)
(0.00122218 0 0)
(0.00124159 0 0)
(0.00125808 0 0)
(0.00127222 0 0)
(0.00128714 0 0)
(0.00130068 0 0)
(0.00131967 0 0)
(0.0013364 0 0)
(0.00134671 0 0)
(0.00135961 0 0)
(0.00137665 0 0)
(0.00139311 0 0)
(0.00140852 0 0)
(0.00142372 0 0)
(0.00144051 0 0)
(0.00145462 0 0)
(0.00146818 0 0)
(0.00148665 0 0)
(0.00150283 0 0)
(0.00151567 0 0)
(0.00153417 0 0)
(0.00154997 0 0)
(0.00156627 0 0)
(0.00158364 0 0)
(0.00159968 0 0)
(0.00161554 0 0)
(0.0016348 0 0)
(0.00165183 0 0)
(0.00166158 0 0)
(0.0016765 0 0)
)
;

boundaryField
{
    inlet
    {
        type            fixedValue;
        value           uniform (0 0 0);
    }
    outlet
    {
        type            zeroGradient;
    }
    yzfaces
    {
        type            empty;
    }
}


// ************************************************************************* //
