/*--------------------------------*- C++ -*----------------------------------*\
| =========                 |                                                 |
| \\      /  F ield         | foam-extend: Open Source CFD                    |
|  \\    /   O peration     | Version:     5.0                                |
|   \\  /    A nd           | Web:         http://www.foam-extend.org         |
|    \\/     M anipulation  |                                                 |
\*---------------------------------------------------------------------------*/
FoamFile
{
    version     2.0;
    format      ascii;
    class       surfaceScalarField;
    location    "7";
    object      phi;
}
// * * * * * * * * * * * * * * * * * * * * * * * * * * * * * * * * * * * * * //

dimensions      [0 3 -1 0 0 0 0];

internalField   nonuniform List<scalar> 
99
(
1.23162e-06
1.23023e-06
1.23752e-06
1.24135e-06
1.23058e-06
1.23273e-06
1.23649e-06
1.22944e-06
1.23217e-06
1.23102e-06
1.22597e-06
1.22701e-06
1.2307e-06
1.22871e-06
1.22781e-06
1.22564e-06
1.22749e-06
1.22321e-06
1.22885e-06
1.22808e-06
1.22539e-06
1.22874e-06
1.23056e-06
1.23365e-06
1.23164e-06
1.23141e-06
1.23336e-06
1.23453e-06
1.23475e-06
1.23553e-06
1.23117e-06
1.23156e-06
1.23022e-06
1.22952e-06
1.23072e-06
1.23168e-06
1.23214e-06
1.23204e-06
1.22963e-06
1.22983e-06
1.22852e-06
1.23073e-06
1.23238e-06
1.23269e-06
1.23234e-06
1.23168e-06
1.23355e-06
1.2345e-06
1.23646e-06
1.23934e-06
1.23687e-06
1.24185e-06
1.24149e-06
1.24333e-06
1.24168e-06
1.24312e-06
1.24402e-06
1.24561e-06
1.24402e-06
1.24398e-06
1.24341e-06
1.24373e-06
1.24325e-06
1.2431e-06
1.24522e-06
1.24366e-06
1.24411e-06
1.2439e-06
1.24555e-06
1.24457e-06
1.24353e-06
1.24349e-06
1.24398e-06
1.2421e-06
1.24369e-06
1.24331e-06
1.24191e-06
1.2415e-06
1.2424e-06
1.24235e-06
1.24309e-06
1.24291e-06
1.24368e-06
1.24332e-06
1.2455e-06
1.24506e-06
1.24617e-06
1.24688e-06
1.24633e-06
1.24731e-06
1.24594e-06
1.24503e-06
1.24434e-06
1.24493e-06
1.24443e-06
1.2427e-06
1.24319e-06
1.24365e-06
1.24537e-06
)
;

boundaryField
{
    inlet
    {
        type            calculated;
        value           uniform -1.225e-06;
    }
    outlet
    {
        type            calculated;
        value           uniform 1.24379e-06;
    }
    yzfaces
    {
        type            empty;
    }
}


// ************************************************************************* //
