/*--------------------------------*- C++ -*----------------------------------*\
| =========                 |                                                 |
| \\      /  F ield         | foam-extend: Open Source CFD                    |
|  \\    /   O peration     | Version:     5.0                                |
|   \\  /    A nd           | Web:         http://www.foam-extend.org         |
|    \\/     M anipulation  |                                                 |
\*---------------------------------------------------------------------------*/
FoamFile
{
    version     2.0;
    format      ascii;
    class       volScalarField;
    location    "2";
    object      S.water;
}
// * * * * * * * * * * * * * * * * * * * * * * * * * * * * * * * * * * * * * //

dimensions      [0 0 0 0 0 0 0];

internalField   nonuniform List<scalar> 
100
(
0.996761
0.994561
0.992189
0.989291
0.985068
0.977044
0.95569
0.890095
0.762321
0.619167
0.48787
0.372055
0.277946
0.202238
0.14639
0.105389
0.0795448
0.065683
0.0570179
0.0534017
0.0517416
0.050616
0.0511963
0.0504006
0.0505559
0.0500108
0.0503065
0.0500252
0.0499953
0.0499066
0.0494766
0.0492947
0.0494075
0.0495806
0.0499162
0.0497906
0.0496005
0.0498004
0.0494082
0.0496481
0.0497702
0.0496842
0.0501878
0.0498329
0.0496726
0.0501838
0.0503397
0.0503433
0.0504033
0.050394
0.0498593
0.0504088
0.0497681
0.0496002
0.0499454
0.0504088
0.0503693
0.050147
0.0499827
0.050201
0.0499303
0.0500312
0.0501622
0.0500754
0.0499397
0.0496032
0.0498354
0.0492351
0.0497529
0.0496428
0.049807
0.049972
0.050093
0.0500024
0.0499071
0.0495611
0.0492068
0.0493916
0.0494641
0.0493696
0.0495905
0.049742
0.0500067
0.0495191
0.0502899
0.0502553
0.0502555
0.049547
0.0496695
0.0500301
0.0495285
0.0496976
0.0499537
0.0504455
0.0497623
0.0505671
0.0505751
0.0512861
0.0514203
0.0519597
)
;

boundaryField
{
    inlet
    {
        type            calculated;
        value           uniform 1;
    }
    outlet
    {
        type            calculated;
        value           uniform 0.0519597;
    }
    yzfaces
    {
        type            empty;
    }
}


// ************************************************************************* //
