/*--------------------------------*- C++ -*----------------------------------*\
| =========                 |                                                 |
| \\      /  F ield         | foam-extend: Open Source CFD                    |
|  \\    /   O peration     | Version:     5.0                                |
|   \\  /    A nd           | Web:         http://www.foam-extend.org         |
|    \\/     M anipulation  |                                                 |
\*---------------------------------------------------------------------------*/
FoamFile
{
    version     2.0;
    format      ascii;
    class       volScalarField;
    location    "2";
    object      XH2O;
}
// * * * * * * * * * * * * * * * * * * * * * * * * * * * * * * * * * * * * * //

dimensions      [0 0 0 0 0 0 0];

internalField   nonuniform List<scalar> 
100
(
1.0024
1.0013
1.00105
0.98908
0.993746
1.0185
1.03483
1.0066
0.930187
0.768306
0.607548
0.393865
0.241963
0.0949958
0.0781946
0.0120957
0.0148102
0.0628274
-0.0508904
0.0609105
0.0137024
-0.021224
-0.00889581
0.0163681
0.0994811
-0.088959
0.00848734
-0.0126064
-0.0103347
0.0451085
0.0294866
-0.0311685
-0.0892399
-0.011096
0.0517402
-0.0184128
-0.0425838
0.00926752
0.00505443
-0.0267274
0.0105497
0.025465
-0.0773905
0.0460617
0.0325301
-0.0593256
-8.11003e-05
0.0502715
-0.0326136
0.0186313
-0.00439352
0.00222025
0.0269607
-0.0389114
-0.0176401
0.0618553
0.0204693
-0.0277178
0.0634035
-0.071136
0.0504794
0.00385582
-0.0361642
0.0426587
-0.0333145
-0.00951405
0.0319693
-0.0349927
-0.0213727
-0.00389401
-0.0280471
0.044789
-0.0301889
-0.0156717
0.0556793
-0.0383596
0.0264231
-0.0546662
0.0134109
-0.026466
-0.0876881
0.0275312
0.0221991
0.0276021
-0.0526478
0.0386192
0.0390204
0.0222768
-0.136217
0.111389
-0.110857
0.0375931
0.0284614
-0.00804739
-0.00691661
0.0185893
-0.0493341
0.0418536
-0.0504844
0.158413
)
;

boundaryField
{
    inlet
    {
        type            calculated;
        value           uniform 1;
    }
    outlet
    {
        type            calculated;
        value           uniform 0.158413;
    }
    yzfaces
    {
        type            empty;
    }
}


// ************************************************************************* //
