/*--------------------------------*- C++ -*----------------------------------*\
| =========                 |                                                 |
| \\      /  F ield         | foam-extend: Open Source CFD                    |
|  \\    /   O peration     | Version:     5.0                                |
|   \\  /    A nd           | Web:         http://www.foam-extend.org         |
|    \\/     M anipulation  |                                                 |
\*---------------------------------------------------------------------------*/
FoamFile
{
    version     2.0;
    format      ascii;
    class       surfaceScalarField;
    location    "8";
    object      phi;
}
// * * * * * * * * * * * * * * * * * * * * * * * * * * * * * * * * * * * * * //

dimensions      [0 3 -1 0 0 0 0];

internalField   nonuniform List<scalar> 
99
(
1.22362e-06
1.22147e-06
1.22096e-06
1.2264e-06
1.22496e-06
1.23059e-06
1.23979e-06
1.24288e-06
1.24266e-06
1.24191e-06
1.24446e-06
1.24699e-06
1.24427e-06
1.23943e-06
1.24595e-06
1.24753e-06
1.24412e-06
1.24771e-06
1.25018e-06
1.24965e-06
1.24951e-06
1.25296e-06
1.2526e-06
1.25153e-06
1.25142e-06
1.24862e-06
1.25101e-06
1.24969e-06
1.25306e-06
1.25248e-06
1.25293e-06
1.25307e-06
1.25202e-06
1.25226e-06
1.25109e-06
1.25246e-06
1.25079e-06
1.25222e-06
1.25498e-06
1.25314e-06
1.25527e-06
1.25416e-06
1.25646e-06
1.25457e-06
1.25317e-06
1.25234e-06
1.25653e-06
1.25598e-06
1.25774e-06
1.25619e-06
1.25556e-06
1.25537e-06
1.25537e-06
1.25773e-06
1.25874e-06
1.26063e-06
1.25994e-06
1.25975e-06
1.2608e-06
1.26026e-06
1.25891e-06
1.25652e-06
1.25403e-06
1.25543e-06
1.2578e-06
1.25854e-06
1.25843e-06
1.2577e-06
1.25876e-06
1.25918e-06
1.26012e-06
1.26003e-06
1.261e-06
1.26081e-06
1.26057e-06
1.26097e-06
1.26108e-06
1.26197e-06
1.26182e-06
1.26111e-06
1.26109e-06
1.26093e-06
1.26174e-06
1.26116e-06
1.26128e-06
1.26047e-06
1.26052e-06
1.26005e-06
1.26026e-06
1.26175e-06
1.2624e-06
1.26249e-06
1.26292e-06
1.26211e-06
1.26163e-06
1.2636e-06
1.26518e-06
1.26344e-06
1.26412e-06
)
;

boundaryField
{
    inlet
    {
        type            calculated;
        value           uniform -1.225e-06;
    }
    outlet
    {
        type            calculated;
        value           uniform 1.26407e-06;
    }
    yzfaces
    {
        type            empty;
    }
}


// ************************************************************************* //
