/*--------------------------------*- C++ -*----------------------------------*\
| =========                 |                                                 |
| \\      /  F ield         | foam-extend: Open Source CFD                    |
|  \\    /   O peration     | Version:     5.0                                |
|   \\  /    A nd           | Web:         http://www.foam-extend.org         |
|    \\/     M anipulation  |                                                 |
\*---------------------------------------------------------------------------*/
FoamFile
{
    version     2.0;
    format      ascii;
    class       volVectorField;
    location    "8";
    object      U.gas;
}
// * * * * * * * * * * * * * * * * * * * * * * * * * * * * * * * * * * * * * //

dimensions      [0 1 -1 0 0 0 0];

internalField   nonuniform List<vector> 
100
(
(0.00702059 0 0)
(0.00791679 0 0)
(0.0085839 0 0)
(0.00917673 0 0)
(0.00969678 0 0)
(0.0101471 0 0)
(0.0105526 0 0)
(0.0109121 0 0)
(0.0112393 0 0)
(0.0115372 0 0)
(0.0118357 0 0)
(0.0121061 0 0)
(0.0123848 0 0)
(0.0125894 0 0)
(0.0128265 0 0)
(0.013101 0 0)
(0.0132871 0 0)
(0.0135011 0 0)
(0.013717 0 0)
(0.0139296 0 0)
(0.0141212 0 0)
(0.0143292 0 0)
(0.0145173 0 0)
(0.0146761 0 0)
(0.0148246 0 0)
(0.0149756 0 0)
(0.0151008 0 0)
(0.0152603 0 0)
(0.0154027 0 0)
(0.015535 0 0)
(0.0156685 0 0)
(0.0157917 0 0)
(0.0159262 0 0)
(0.0160053 0 0)
(0.0161211 0 0)
(0.0162429 0 0)
(0.0163983 0 0)
(0.0165121 0 0)
(0.0166493 0 0)
(0.0167705 0 0)
(0.0168842 0 0)
(0.017003 0 0)
(0.0171064 0 0)
(0.0171823 0 0)
(0.0172422 0 0)
(0.017289 0 0)
(0.0174193 0 0)
(0.0175095 0 0)
(0.0176123 0 0)
(0.0176823 0 0)
(0.0177727 0 0)
(0.0178634 0 0)
(0.0179481 0 0)
(0.0180552 0 0)
(0.0181737 0 0)
(0.0182658 0 0)
(0.0183639 0 0)
(0.0184322 0 0)
(0.0185235 0 0)
(0.0185886 0 0)
(0.018651 0 0)
(0.0186843 0 0)
(0.0187125 0 0)
(0.0187722 0 0)
(0.0188786 0 0)
(0.0189673 0 0)
(0.019041 0 0)
(0.019099 0 0)
(0.0191692 0 0)
(0.0192392 0 0)
(0.0193287 0 0)
(0.0193845 0 0)
(0.0194449 0 0)
(0.0195007 0 0)
(0.0195576 0 0)
(0.0196255 0 0)
(0.0196785 0 0)
(0.0197282 0 0)
(0.0197964 0 0)
(0.0198482 0 0)
(0.0198802 0 0)
(0.0199394 0 0)
(0.0199875 0 0)
(0.020037 0 0)
(0.0200903 0 0)
(0.0201356 0 0)
(0.0201941 0 0)
(0.0202401 0 0)
(0.0202856 0 0)
(0.0203479 0 0)
(0.0204067 0 0)
(0.0204536 0 0)
(0.0205058 0 0)
(0.0205541 0 0)
(0.0205739 0 0)
(0.0206449 0 0)
(0.0207165 0 0)
(0.0207524 0 0)
(0.020788 0 0)
(0.0208467 0 0)
)
;

boundaryField
{
    inlet
    {
        type            fixedValue;
        value           uniform (0.005 0 0);
    }
    outlet
    {
        type            zeroGradient;
    }
    yzfaces
    {
        type            empty;
    }
}


// ************************************************************************* //
