/*--------------------------------*- C++ -*----------------------------------*\
| =========                 |                                                 |
| \\      /  F ield         | foam-extend: Open Source CFD                    |
|  \\    /   O peration     | Version:     5.0                                |
|   \\  /    A nd           | Web:         http://www.foam-extend.org         |
|    \\/     M anipulation  |                                                 |
\*---------------------------------------------------------------------------*/
FoamFile
{
    version     2.0;
    format      ascii;
    class       surfaceScalarField;
    location    "6";
    object      phi;
}
// * * * * * * * * * * * * * * * * * * * * * * * * * * * * * * * * * * * * * //

dimensions      [0 3 -1 0 0 0 0];

internalField   nonuniform List<scalar> 
99
(
1.22629e-06
1.22338e-06
1.22477e-06
1.22763e-06
1.22308e-06
1.22485e-06
1.22618e-06
1.22475e-06
1.22662e-06
1.22594e-06
1.22813e-06
1.22637e-06
1.2256e-06
1.2256e-06
1.22705e-06
1.22654e-06
1.22517e-06
1.22732e-06
1.22674e-06
1.22596e-06
1.2242e-06
1.22462e-06
1.22224e-06
1.22399e-06
1.22302e-06
1.22368e-06
1.22645e-06
1.22232e-06
1.22791e-06
1.22905e-06
1.21308e-06
1.22363e-06
1.20157e-06
1.21888e-06
1.20183e-06
1.19533e-06
1.13984e-06
1.22287e-06
1.25179e-06
1.207e-06
1.2368e-06
1.2368e-06
1.2666e-06
1.2219e-06
1.2517e-06
1.2666e-06
1.2666e-06
1.2666e-06
1.2964e-06
1.2815e-06
1.2517e-06
1.2517e-06
1.2666e-06
1.3113e-06
1.2964e-06
1.3262e-06
1.3411e-06
1.3262e-06
1.3113e-06
1.35601e-06
1.3411e-06
1.3411e-06
1.3411e-06
1.3113e-06
1.3262e-06
1.3262e-06
1.3262e-06
1.35601e-06
1.3262e-06
1.2964e-06
1.2815e-06
1.2964e-06
1.3113e-06
1.35601e-06
1.35601e-06
1.3411e-06
1.37091e-06
1.3411e-06
1.3411e-06
1.3411e-06
1.3113e-06
1.3262e-06
1.2964e-06
1.2964e-06
1.2666e-06
1.2815e-06
1.3113e-06
1.3113e-06
1.2964e-06
1.2815e-06
1.2815e-06
1.2815e-06
1.2666e-06
1.2666e-06
1.2964e-06
1.3113e-06
1.2666e-06
1.2517e-06
1.2517e-06
)
;

boundaryField
{
    inlet
    {
        type            calculated;
        value           uniform -1.225e-06;
    }
    outlet
    {
        type            calculated;
        value           uniform 1.2219e-06;
    }
    yzfaces
    {
        type            empty;
    }
}


// ************************************************************************* //
