0 0.999996
0.000666667 0.999997
0.00133333 0.999997
0.002 0.999997
0.00266667 0.999996
0.00333333 0.999996
0.004 0.999995
0.00466667 0.999995
0.00533333 0.999994
0.006 0.999993
0.00666667 0.999992
0.00733333 0.999992
0.008 0.999991
0.00866667 0.99999
0.00933333 0.99999
0.01 0.999989
0.0106667 0.999988
0.0113333 0.999988
0.012 0.999987
0.0126667 0.999987
0.0133333 0.999986
0.014 0.999985
0.0146667 0.999985
0.0153333 0.999984
0.016 0.999984
0.0166667 0.999983
0.0173333 0.999982
0.018 0.999982
0.0186667 0.999981
0.0193333 0.99998
0.02 0.99998
0.0206667 0.999979
0.0213333 0.999979
0.022 0.999978
0.0226667 0.999977
0.0233333 0.999977
0.024 0.999976
0.0246667 0.999976
0.0253333 0.999975
0.026 0.999974
0.0266667 0.999974
0.0273333 0.999973
0.028 0.999973
0.0286667 0.999972
0.0293333 0.999971
0.03 0.999971
0.0306667 0.99997
0.0313333 0.999969
0.032 0.999969
0.0326667 0.999968
0.0333333 0.999968
0.034 0.999967
0.0346667 0.999966
0.0353333 0.999966
0.036 0.999965
0.0366667 0.999965
0.0373333 0.999964
0.038 0.999963
0.0386667 0.999963
0.0393333 0.999962
0.04 0.999962
0.0406667 0.999961
0.0413333 0.99996
0.042 0.99996
0.0426667 0.999959
0.0433333 0.999959
0.044 0.999958
0.0446667 0.999957
0.0453333 0.999957
0.046 0.999956
0.0466667 0.999955
0.0473333 0.999955
0.048 0.999954
0.0486667 0.999954
0.0493333 0.999953
0.05 0.999952
0.0506667 0.999952
0.0513333 0.999951
0.052 0.999951
0.0526667 0.99995
0.0533333 0.999949
0.054 0.999949
0.0546667 0.999948
0.0553333 0.999948
0.056 0.999947
0.0566667 0.999946
0.0573333 0.999946
0.058 0.999945
0.0586667 0.999945
0.0593333 0.999944
0.06 0.999943
0.0606667 0.999943
0.0613333 0.999942
0.062 0.999942
0.0626667 0.999941
0.0633333 0.99994
0.064 0.99994
0.0646667 0.999939
0.0653333 0.999938
0.066 0.999938
0.0666667 0.999937
0.0673333 0.999937
0.068 0.999936
0.0686667 0.999935
0.0693333 0.999935
0.07 0.999934
0.0706667 0.999934
0.0713333 0.999933
0.072 0.999932
0.0726667 0.999932
0.0733333 0.999931
0.074 0.999931
0.0746667 0.99993
0.0753333 0.999929
0.076 0.999929
0.0766667 0.999928
0.0773333 0.999928
0.078 0.999927
0.0786667 0.999926
0.0793333 0.999926
0.08 0.999925
0.0806667 0.999925
0.0813333 0.999924
0.082 0.999923
0.0826667 0.999923
0.0833333 0.999922
0.084 0.999922
0.0846667 0.999921
0.0853333 0.99992
0.086 0.99992
0.0866667 0.999919
0.0873333 0.999918
0.088 0.999918
0.0886667 0.999917
0.0893333 0.999917
0.09 0.999916
0.0906667 0.999915
0.0913333 0.999915
0.092 0.999914
0.0926667 0.999914
0.0933333 0.999913
0.094 0.999912
0.0946667 0.999912
0.0953333 0.999911
0.096 0.999911
0.0966667 0.99991
0.0973333 0.999909
0.098 0.999909
0.0986667 0.999908
0.0993333 0.999908
0.1 0.999907
0.100667 0.999906
0.101333 0.999906
0.102 0.999905
0.102667 0.999905
0.103333 0.999904
0.104 0.999903
0.104667 0.999903
0.105333 0.999902
0.106 0.999902
0.106667 0.999901
0.107333 0.9999
0.108 0.9999
0.108667 0.999899
0.109333 0.999899
0.11 0.999898
0.110667 0.999897
0.111333 0.999897
0.112 0.999896
0.112667 0.999895
0.113333 0.999895
0.114 0.999894
0.114667 0.999894
0.115333 0.999893
0.116 0.999892
0.116667 0.999892
0.117333 0.999891
0.118 0.999891
0.118667 0.99989
0.119333 0.999889
0.12 0.999889
0.120667 0.999888
0.121333 0.999888
0.122 0.999887
0.122667 0.999886
0.123333 0.999886
0.124 0.999885
0.124667 0.999885
0.125333 0.999884
0.126 0.999883
0.126667 0.999883
0.127333 0.999882
0.128 0.999882
0.128667 0.999881
0.129333 0.99988
0.13 0.99988
0.130667 0.999879
0.131333 0.999879
0.132 0.999878
0.132667 0.999877
0.133333 0.999877
0.134 0.999876
0.134667 0.999876
0.135333 0.999875
0.136 0.999874
0.136667 0.999874
0.137333 0.999873
0.138 0.999873
0.138667 0.999872
0.139333 0.999871
0.14 0.999871
0.140667 0.99987
0.141333 0.999869
0.142 0.999869
0.142667 0.999868
0.143333 0.999868
0.144 0.999867
0.144667 0.999866
0.145333 0.999866
0.146 0.999865
0.146667 0.999865
0.147333 0.999864
0.148 0.999863
0.148667 0.999863
0.149333 0.999862
0.15 0.999862
0.150667 0.999861
0.151333 0.99986
0.152 0.99986
0.152667 0.999859
0.153333 0.999859
0.154 0.999858
0.154667 0.999857
0.155333 0.999857
0.156 0.999856
0.156667 0.999856
0.157333 0.999855
0.158 0.999854
0.158667 0.999854
0.159333 0.999853
0.16 0.999853
0.160667 0.99985
0.161333 0.999577
0.162 0.987636
0.162667 0.974765
0.163333 0.962146
0.164 0.949773
0.164667 0.937638
0.165333 0.925735
0.166 0.914059
0.166667 0.902603
0.167333 0.891361
0.168 0.88033
0.168667 0.869503
0.169333 0.858875
0.17 0.848441
0.170667 0.838198
0.171333 0.828139
0.172 0.818261
0.172667 0.808559
0.173333 0.79903
0.174 0.789669
0.174667 0.780471
0.175333 0.771434
0.176 0.762554
0.176667 0.753827
0.177333 0.745249
0.178 0.736817
0.178667 0.728528
0.179333 0.720379
0.18 0.712366
0.180667 0.704486
0.181333 0.696737
0.182 0.689115
0.182667 0.681619
0.183333 0.674244
0.184 0.666989
0.184667 0.65985
0.185333 0.652826
0.186 0.645914
0.186667 0.639111
0.187333 0.632415
0.188 0.625825
0.188667 0.619337
0.189333 0.61295
0.19 0.606661
0.190667 0.600469
0.191333 0.594372
0.192 0.588367
0.192667 0.582453
0.193333 0.576628
0.194 0.57089
0.194667 0.565238
0.195333 0.559669
0.196 0.554182
0.196667 0.548776
0.197333 0.543449
0.198 0.538199
0.198667 0.533025
0.199333 0.527926
0.2 0.522899
0.200667 0.517944
0.201333 0.513059
0.202 0.508244
0.202667 0.503496
0.203333 0.498814
0.204 0.494197
0.204667 0.489645
0.205333 0.485155
0.206 0.480726
0.206667 0.476358
0.207333 0.47205
0.208 0.4678
0.208667 0.463607
0.209333 0.45947
0.21 0.455388
0.210667 0.451361
0.211333 0.447387
0.212 0.443465
0.212667 0.439595
0.213333 0.435775
0.214 0.432005
0.214667 0.428284
0.215333 0.42461
0.216 0.420984
0.216667 0.417404
0.217333 0.41387
0.218 0.41038
0.218667 0.406934
0.219333 0.403532
0.22 0.400172
0.220667 0.396854
0.221333 0.393577
0.222 0.390341
0.222667 0.387144
0.223333 0.383987
0.224 0.380868
0.224667 0.377786
0.225333 0.374743
0.226 0.371735
0.226667 0.368764
0.227333 0.365829
0.228 0.362928
0.228667 0.360062
0.229333 0.357229
0.23 0.35443
0.230667 0.351663
0.231333 0.348929
0.232 0.346227
0.232667 0.343556
0.233333 0.340916
0.234 0.338306
0.234667 0.335726
0.235333 0.333175
0.236 0.330653
0.236667 0.32816
0.237333 0.325695
0.238 0.323257
0.238667 0.320847
0.239333 0.318464
0.24 0.316107
0.240667 0.313776
0.241333 0.311471
0.242 0.309191
0.242667 0.306936
0.243333 0.304705
0.244 0.302499
0.244667 0.300317
0.245333 0.298158
0.246 0.296022
0.246667 0.293909
0.247333 0.291819
0.248 0.289751
0.248667 0.287705
0.249333 0.28568
0.25 0.283677
0.250667 0.281694
0.251333 0.279732
0.252 0.277791
0.252667 0.27587
0.253333 0.273968
0.254 0.272087
0.254667 0.270224
0.255333 0.26838
0.256 0.266556
0.256667 0.264749
0.257333 0.262961
0.258 0.261191
0.258667 0.259439
0.259333 0.257704
0.26 0.255987
0.260667 0.254287
0.261333 0.252603
0.262 0.250936
0.262667 0.249286
0.263333 0.247652
0.264 0.246033
0.264667 0.244431
0.265333 0.242844
0.266 0.241272
0.266667 0.239716
0.267333 0.238174
0.268 0.236647
0.268667 0.235135
0.269333 0.233638
0.27 0.232154
0.270667 0.230685
0.271333 0.229229
0.272 0.227787
0.272667 0.226359
0.273333 0.224943
0.274 0.223542
0.274667 0.222153
0.275333 0.220777
0.276 0.219413
0.276667 0.218062
0.277333 0.216724
0.278 0.215398
0.278667 0.214084
0.279333 0.212781
0.28 0.211491
0.280667 0.210212
0.281333 0.208945
0.282 0.207689
0.282667 0.206444
0.283333 0.205211
0.284 0.203988
0.284667 0.202776
0.285333 0.201575
0.286 0.200385
0.286667 0.199205
0.287333 0.198035
0.288 0.196875
0.288667 0.195726
0.289333 0.194587
0.29 0.193457
0.290667 0.192337
0.291333 0.191227
0.292 0.190126
0.292667 0.189035
0.293333 0.187953
0.294 0.18688
0.294667 0.185817
0.295333 0.184762
0.296 0.183716
0.296667 0.182679
0.297333 0.181651
0.298 0.180631
0.298667 0.17962
0.299333 0.178617
0.3 0.177623
0.300667 0.176636
0.301333 0.175658
0.302 0.174688
0.302667 0.173726
0.303333 0.172772
0.304 0.171825
0.304667 0.170886
0.305333 0.169955
0.306 0.169031
0.306667 0.168115
0.307333 0.167206
0.308 0.166304
0.308667 0.16541
0.309333 0.164522
0.31 0.163642
0.310667 0.162769
0.311333 0.161902
0.312 0.161043
0.312667 0.16019
0.313333 0.159344
0.314 0.158504
0.314667 0.157671
0.315333 0.156845
0.316 0.156025
0.316667 0.155211
0.317333 0.154404
0.318 0.153602
0.318667 0.152807
0.319333 0.152018
0.32 0.151235
0.320667 0.150458
0.321333 0.149687
0.322 0.148922
0.322667 0.148162
0.323333 0.147409
0.324 0.146661
0.324667 0.145918
0.325333 0.145181
0.326 0.14445
0.326667 0.143724
0.327333 0.143003
0.328 0.142288
0.328667 0.141578
0.329333 0.140873
0.33 0.140173
0.330667 0.139479
0.331333 0.138789
0.332 0.138105
0.332667 0.137425
0.333333 0.136751
0.334 0.136081
0.334667 0.135416
0.335333 0.134756
0.336 0.134101
0.336667 0.133451
0.337333 0.132805
0.338 0.132163
0.338667 0.131527
0.339333 0.130894
0.34 0.130266
0.340667 0.129643
0.341333 0.129024
0.342 0.12841
0.342667 0.127799
0.343333 0.127193
0.344 0.126591
0.344667 0.125994
0.345333 0.1254
0.346 0.124811
0.346667 0.124225
0.347333 0.123644
0.348 0.123067
0.348667 0.122493
0.349333 0.121924
0.35 0.121358
0.350667 0.120797
0.351333 0.120239
0.352 0.119685
0.352667 0.119134
0.353333 0.118588
0.354 0.118045
0.354667 0.117505
0.355333 0.11697
0.356 0.116438
0.356667 0.115909
0.357333 0.115384
0.358 0.114862
0.358667 0.114344
0.359333 0.113829
0.36 0.113318
0.360667 0.11281
0.361333 0.112305
0.362 0.111804
0.362667 0.111306
0.363333 0.110811
0.364 0.110319
0.364667 0.109831
0.365333 0.109346
0.366 0.108864
0.366667 0.108384
0.367333 0.107909
0.368 0.107436
0.368667 0.106966
0.369333 0.106499
0.37 0.106035
0.370667 0.105574
0.371333 0.105116
0.372 0.104661
0.372667 0.104208
0.373333 0.103759
0.374 0.103312
0.374667 0.102868
0.375333 0.102427
0.376 0.101989
0.376667 0.101553
0.377333 0.10112
0.378 0.10069
0.378667 0.100263
0.379333 0.0998377
0.38 0.0994154
0.380667 0.0989957
0.381333 0.0985786
0.382 0.098164
0.382667 0.097752
0.383333 0.0973424
0.384 0.0969354
0.384667 0.0965308
0.385333 0.0961287
0.386 0.095729
0.386667 0.0953317
0.387333 0.0949367
0.388 0.0945442
0.388667 0.094154
0.389333 0.0937661
0.39 0.0933806
0.390667 0.0929973
0.391333 0.0926163
0.392 0.0922376
0.392667 0.0918611
0.393333 0.0914868
0.394 0.0911147
0.394667 0.0907448
0.395333 0.0903771
0.396 0.0900115
0.396667 0.0896481
0.397333 0.0892868
0.398 0.0889276
0.398667 0.0885704
0.399333 0.0882153
0.4 0.0878623
0.400667 0.0875113
0.401333 0.0871623
0.402 0.0868154
0.402667 0.0864704
0.403333 0.0861274
0.404 0.0857863
0.404667 0.0854472
0.405333 0.08511
0.406 0.0847747
0.406667 0.0844413
0.407333 0.0841098
0.408 0.0837802
0.408667 0.0834524
0.409333 0.0831265
0.41 0.0828023
0.410667 0.08248
0.411333 0.0821595
0.412 0.0818408
0.412667 0.0815238
0.413333 0.0812086
0.414 0.0808952
0.414667 0.0805835
0.415333 0.0802734
0.416 0.0799651
0.416667 0.0796585
0.417333 0.0793536
0.418 0.0790503
0.418667 0.0787487
0.419333 0.0784487
0.42 0.0781504
0.420667 0.0778536
0.421333 0.0775585
0.422 0.077265
0.422667 0.076973
0.423333 0.0766827
0.424 0.0763938
0.424667 0.0761066
0.425333 0.0758208
0.426 0.0755366
0.426667 0.0752539
0.427333 0.0749727
0.428 0.074693
0.428667 0.0744148
0.429333 0.0741381
0.43 0.0738628
0.430667 0.0735889
0.431333 0.0733165
0.432 0.0730456
0.432667 0.072776
0.433333 0.0725078
0.434 0.0722411
0.434667 0.0719757
0.435333 0.0717118
0.436 0.0714491
0.436667 0.0711879
0.437333 0.070928
0.438 0.0706694
0.438667 0.0704122
0.439333 0.0701562
0.44 0.0699016
0.440667 0.0696483
0.441333 0.0693963
0.442 0.0691456
0.442667 0.0688961
0.443333 0.068648
0.444 0.068401
0.444667 0.0681553
0.445333 0.0679109
0.446 0.0676677
0.446667 0.0674257
0.447333 0.0671849
0.448 0.0669454
0.448667 0.066707
0.449333 0.0664698
0.45 0.0662338
0.450667 0.065999
0.451333 0.0657653
0.452 0.0655328
0.452667 0.0653015
0.453333 0.0650713
0.454 0.0648422
0.454667 0.0646143
0.455333 0.0643874
0.456 0.0641617
0.456667 0.0639371
0.457333 0.0637136
0.458 0.0634912
0.458667 0.0632698
0.459333 0.0630495
0.46 0.0628303
0.460667 0.0626122
0.461333 0.0623951
0.462 0.0621791
0.462667 0.061964
0.463333 0.0617501
0.464 0.0615371
0.464667 0.0613252
0.465333 0.0611143
0.466 0.0609044
0.466667 0.0606954
0.467333 0.0604875
0.468 0.0602806
0.468667 0.0600746
0.469333 0.0598697
0.47 0.0596656
0.470667 0.0594626
0.471333 0.0592605
0.472 0.0590593
0.472667 0.0588591
0.473333 0.0586598
0.474 0.0584615
0.474667 0.0582641
0.475333 0.0580676
0.476 0.057872
0.476667 0.0576773
0.477333 0.0574835
0.478 0.0572906
0.478667 0.0570986
0.479333 0.0569075
0.48 0.0567172
0.480667 0.0565278
0.481333 0.0563393
0.482 0.0561517
0.482667 0.0559649
0.483333 0.055779
0.484 0.0555939
0.484667 0.0554096
0.485333 0.0552262
0.486 0.0550436
0.486667 0.0548618
0.487333 0.0546809
0.488 0.0545008
0.488667 0.0543214
0.489333 0.0541429
0.49 0.0539652
0.490667 0.0537883
0.491333 0.0536121
0.492 0.0534367
0.492667 0.0532622
0.493333 0.0530884
0.494 0.0529153
0.494667 0.0527431
0.495333 0.0525715
0.496 0.0524008
0.496667 0.0522308
0.497333 0.0520615
0.498 0.051893
0.498667 0.0517252
0.499333 0.0515582
0.5 0.0513919
0.500667 0.0512263
0.501333 0.0510614
0.502 0.0508972
0.502667 0.0507338
0.503333 0.050571
0.504 0.050409
0.504667 0.0502477
0.505333 0.050087
0.506 0.049927
0.506667 0.0497678
0.507333 0.0496092
0.508 0.0494513
0.508667 0.049294
0.509333 0.0491375
0.51 0.0489816
0.510667 0.0488263
0.511333 0.0486717
0.512 0.0485178
0.512667 0.0483645
0.513333 0.0482119
0.514 0.0480599
0.514667 0.0479085
0.515333 0.0477578
0.516 0.0476077
0.516667 0.0474583
0.517333 0.0473094
0.518 0.0471612
0.518667 0.0470136
0.519333 0.0468666
0.52 0.0467202
0.520667 0.0465745
0.521333 0.0464293
0.522 0.0462847
0.522667 0.0461408
0.523333 0.0459974
0.524 0.0458546
0.524667 0.0457124
0.525333 0.0455708
0.526 0.0454297
0.526667 0.0452893
0.527333 0.0451494
0.528 0.04501
0.528667 0.0448713
0.529333 0.0447331
0.53 0.0445954
0.530667 0.0444583
0.531333 0.0443218
0.532 0.0441858
0.532667 0.0440504
0.533333 0.0439155
0.534 0.0437812
0.534667 0.0436473
0.535333 0.0435141
0.536 0.0433813
0.536667 0.0432491
0.537333 0.0431174
0.538 0.0429863
0.538667 0.0428556
0.539333 0.0427255
0.54 0.0425959
0.540667 0.0424668
0.541333 0.0423382
0.542 0.0422101
0.542667 0.0420825
0.543333 0.0419554
0.544 0.0418288
0.544667 0.0417027
0.545333 0.0415771
0.546 0.041452
0.546667 0.0413274
0.547333 0.0412033
0.548 0.0410796
0.548667 0.0409564
0.549333 0.0408337
0.55 0.0407115
0.550667 0.0405898
0.551333 0.0404685
0.552 0.0403477
0.552667 0.0402273
0.553333 0.0401074
0.554 0.039988
0.554667 0.039869
0.555333 0.0397505
0.556 0.0396324
0.556667 0.0395148
0.557333 0.0393976
0.558 0.0392809
0.558667 0.0391646
0.559333 0.0390487
0.56 0.0389333
0.560667 0.0388184
0.561333 0.0387038
0.562 0.0385897
0.562667 0.038476
0.563333 0.0383628
0.564 0.0382499
0.564667 0.0381375
0.565333 0.0380255
0.566 0.0379139
0.566667 0.0378028
0.567333 0.037692
0.568 0.0375817
0.568667 0.0374718
0.569333 0.0373622
0.57 0.0372531
0.570667 0.0371444
0.571333 0.0370361
0.572 0.0369282
0.572667 0.0368207
0.573333 0.0367135
0.574 0.0366068
0.574667 0.0365005
0.575333 0.0363945
0.576 0.036289
0.576667 0.0361838
0.577333 0.036079
0.578 0.0359746
0.578667 0.0358705
0.579333 0.0357669
0.58 0.0356636
0.580667 0.0355607
0.581333 0.0354581
0.582 0.0353559
0.582667 0.0352541
0.583333 0.0351527
0.584 0.0350516
0.584667 0.0349509
0.585333 0.0348505
0.586 0.0347506
0.586667 0.0346509
0.587333 0.0345516
0.588 0.0344527
0.588667 0.0343541
0.589333 0.0342559
0.59 0.034158
0.590667 0.0340605
0.591333 0.0339633
0.592 0.0338664
0.592667 0.0337699
0.593333 0.0336737
0.594 0.0335779
0.594667 0.0334824
0.595333 0.0333873
0.596 0.0332924
0.596667 0.0331979
0.597333 0.0331038
0.598 0.03301
0.598667 0.0329164
0.599333 0.0328233
0.6 0.0327304
0.600667 0.0326379
0.601333 0.0325456
0.602 0.0324537
0.602667 0.0323622
0.603333 0.0322709
0.604 0.0321799
0.604667 0.0320893
0.605333 0.031999
0.606 0.031909
0.606667 0.0318193
0.607333 0.0317299
0.608 0.0316408
0.608667 0.031552
0.609333 0.0314635
0.61 0.0313753
0.610667 0.0312874
0.611333 0.0311998
0.612 0.0311125
0.612667 0.0310256
0.613333 0.0309389
0.614 0.0308525
0.614667 0.0307663
0.615333 0.0306805
0.616 0.030595
0.616667 0.0305097
0.617333 0.0304248
0.618 0.0303401
0.618667 0.0302557
0.619333 0.0301716
0.62 0.0300878
0.620667 0.0300042
0.621333 0.029921
0.622 0.029838
0.622667 0.0297553
0.623333 0.0296728
0.624 0.0295907
0.624667 0.0295088
0.625333 0.0294272
0.626 0.0293458
0.626667 0.0292648
0.627333 0.0291839
0.628 0.0291034
0.628667 0.0290231
0.629333 0.0289431
0.63 0.0288634
0.630667 0.0287839
0.631333 0.0287046
0.632 0.0286257
0.632667 0.028547
0.633333 0.0284685
0.634 0.0283903
0.634667 0.0283124
0.635333 0.0282347
0.636 0.0281573
0.636667 0.0280801
0.637333 0.0280032
0.638 0.0279265
0.638667 0.02785
0.639333 0.0277739
0.64 0.0276979
0.640667 0.0276222
0.641333 0.0275468
0.642 0.0274716
0.642667 0.0273966
0.643333 0.0273219
0.644 0.0272474
0.644667 0.0271732
0.645333 0.0270992
0.646 0.0270254
0.646667 0.0269519
0.647333 0.0268786
0.648 0.0268056
0.648667 0.0267327
0.649333 0.0266602
0.65 0.0265878
0.650667 0.0265157
0.651333 0.0264438
0.652 0.0263721
0.652667 0.0263007
0.653333 0.0262295
0.654 0.0261585
0.654667 0.0260877
0.655333 0.0260172
0.656 0.0259469
0.656667 0.0258768
0.657333 0.0258069
0.658 0.0257373
0.658667 0.0256678
0.659333 0.0255986
0.66 0.0255296
0.660667 0.0254608
0.661333 0.0253923
0.662 0.0253239
0.662667 0.0252558
0.663333 0.0251879
0.664 0.0251202
0.664667 0.0250527
0.665333 0.0249854
0.666 0.0249184
0.666667 0.0248515
0.667333 0.0247849
0.668 0.0247184
0.668667 0.0246522
0.669333 0.0245862
0.67 0.0245203
0.670667 0.0244547
0.671333 0.0243893
0.672 0.0243241
0.672667 0.0242591
0.673333 0.0241943
0.674 0.0241297
0.674667 0.0240653
0.675333 0.0240011
0.676 0.0239371
0.676667 0.0238733
0.677333 0.0238096
0.678 0.0237462
0.678667 0.023683
0.679333 0.02362
0.68 0.0235572
0.680667 0.0234945
0.681333 0.0234321
0.682 0.0233698
0.682667 0.0233078
0.683333 0.0232459
0.684 0.0231842
0.684667 0.0231227
0.685333 0.0230614
0.686 0.0230003
0.686667 0.0229394
0.687333 0.0228787
0.688 0.0228181
0.688667 0.0227578
0.689333 0.0226976
0.69 0.0226376
0.690667 0.0225778
0.691333 0.0225181
0.692 0.0224587
0.692667 0.0223994
0.693333 0.0223404
0.694 0.0222815
0.694667 0.0222227
0.695333 0.0221642
0.696 0.0221058
0.696667 0.0220476
0.697333 0.0219896
0.698 0.0219318
0.698667 0.0218741
0.699333 0.0218167
0.7 0.0217594
0.700667 0.0217022
0.701333 0.0216453
0.702 0.0215885
0.702667 0.0215319
0.703333 0.0214754
0.704 0.0214192
0.704667 0.0213631
0.705333 0.0213071
0.706 0.0212514
0.706667 0.0211958
0.707333 0.0211404
0.708 0.0210851
0.708667 0.0210301
0.709333 0.0209751
0.71 0.0209204
0.710667 0.0208658
0.711333 0.0208114
0.712 0.0207572
0.712667 0.0207031
0.713333 0.0206492
0.714 0.0205954
0.714667 0.0205418
0.715333 0.0204884
0.716 0.0204351
0.716667 0.020382
0.717333 0.0203291
0.718 0.0202763
0.718667 0.0202236
0.719333 0.0201712
0.72 0.0201189
0.720667 0.0200667
0.721333 0.0200147
0.722 0.0199629
0.722667 0.0199112
0.723333 0.0198597
0.724 0.0198084
0.724667 0.0197572
0.725333 0.0197061
0.726 0.0196552
0.726667 0.0196045
0.727333 0.0195539
0.728 0.0195035
0.728667 0.0194532
0.729333 0.0194031
0.73 0.0193531
0.730667 0.0193033
0.731333 0.0192536
0.732 0.0192041
0.732667 0.0191548
0.733333 0.0191056
0.734 0.0190565
0.734667 0.0190076
0.735333 0.0189588
0.736 0.0189102
0.736667 0.0188618
0.737333 0.0188134
0.738 0.0187653
0.738667 0.0187173
0.739333 0.0186694
0.74 0.0186217
0.740667 0.0185741
0.741333 0.0185266
0.742 0.0184794
0.742667 0.0184322
0.743333 0.0183852
0.744 0.0183384
0.744667 0.0182917
0.745333 0.0182451
0.746 0.0181987
0.746667 0.0181524
0.747333 0.0181063
0.748 0.0180603
0.748667 0.0180144
0.749333 0.0179687
0.75 0.0179232
0.750667 0.0178777
0.751333 0.0178325
0.752 0.0177873
0.752667 0.0177423
0.753333 0.0176975
0.754 0.0176527
0.754667 0.0176081
0.755333 0.0175637
0.756 0.0175194
0.756667 0.0174752
0.757333 0.0174312
0.758 0.0173873
0.758667 0.0173436
0.759333 0.0173
0.76 0.0172565
0.760667 0.0172131
0.761333 0.0171699
0.762 0.0171269
0.762667 0.0170839
0.763333 0.0170411
0.764 0.0169985
0.764667 0.016956
0.765333 0.0169136
0.766 0.0168713
0.766667 0.0168292
0.767333 0.0167872
0.768 0.0167453
0.768667 0.0167036
0.769333 0.016662
0.77 0.0166206
0.770667 0.0165793
0.771333 0.0165381
0.772 0.016497
0.772667 0.0164561
0.773333 0.0164153
0.774 0.0163747
0.774667 0.0163341
0.775333 0.0162937
0.776 0.0162535
0.776667 0.0162133
0.777333 0.0161733
0.778 0.0161335
0.778667 0.0160937
0.779333 0.0160541
0.78 0.0160146
0.780667 0.0159753
0.781333 0.0159361
0.782 0.015897
0.782667 0.015858
0.783333 0.0158192
0.784 0.0157804
0.784667 0.0157419
0.785333 0.0157034
0.786 0.0156651
0.786667 0.0156269
0.787333 0.0155888
0.788 0.0155509
0.788667 0.0155131
0.789333 0.0154754
0.79 0.0154378
0.790667 0.0154004
0.791333 0.0153631
0.792 0.0153259
0.792667 0.0152889
0.793333 0.0152519
0.794 0.0152151
0.794667 0.0151785
0.795333 0.0151419
0.796 0.0151055
0.796667 0.0150692
0.797333 0.015033
0.798 0.014997
0.798667 0.0149611
0.799333 0.0149253
0.8 0.0148896
0.800667 0.0148541
0.801333 0.0148186
0.802 0.0147833
0.802667 0.0147482
0.803333 0.0147131
0.804 0.0146782
0.804667 0.0146434
0.805333 0.0146087
0.806 0.0145741
0.806667 0.0145397
0.807333 0.0145054
0.808 0.0144712
0.808667 0.0144372
0.809333 0.0144032
0.81 0.0143694
0.810667 0.0143357
0.811333 0.0143021
0.812 0.0142687
0.812667 0.0142354
0.813333 0.0142022
0.814 0.0141691
0.814667 0.0141361
0.815333 0.0141033
0.816 0.0140706
0.816667 0.014038
0.817333 0.0140055
0.818 0.0139732
0.818667 0.0139409
0.819333 0.0139088
0.82 0.0138769
0.820667 0.013845
0.821333 0.0138132
0.822 0.0137816
0.822667 0.0137501
0.823333 0.0137188
0.824 0.0136875
0.824667 0.0136564
0.825333 0.0136254
0.826 0.0135945
0.826667 0.0135637
0.827333 0.013533
0.828 0.0135025
0.828667 0.0134721
0.829333 0.0134418
0.83 0.0134116
0.830667 0.0133816
0.831333 0.0133517
0.832 0.0133219
0.832667 0.0132922
0.833333 0.0132626
0.834 0.0132332
0.834667 0.0132038
0.835333 0.0131746
0.836 0.0131455
0.836667 0.0131166
0.837333 0.0130877
0.838 0.013059
0.838667 0.0130304
0.839333 0.0130019
0.84 0.0129736
0.840667 0.0129453
0.841333 0.0129172
0.842 0.0128892
0.842667 0.0128613
0.843333 0.0128335
0.844 0.0128059
0.844667 0.0127784
0.845333 0.012751
0.846 0.0127237
0.846667 0.0126965
0.847333 0.0126695
0.848 0.0126425
0.848667 0.0126157
0.849333 0.012589
0.85 0.0125625
0.850667 0.012536
0.851333 0.0125097
0.852 0.0124835
0.852667 0.0124574
0.853333 0.0124314
0.854 0.0124056
0.854667 0.0123798
0.855333 0.0123542
0.856 0.0123287
0.856667 0.0123034
0.857333 0.0122781
0.858 0.012253
0.858667 0.012228
0.859333 0.0122031
0.86 0.0121783
0.860667 0.0121537
0.861333 0.0121291
0.862 0.0121047
0.862667 0.0120804
0.863333 0.0120562
0.864 0.0120322
0.864667 0.0120083
0.865333 0.0119844
0.866 0.0119607
0.866667 0.0119372
0.867333 0.0119137
0.868 0.0118904
0.868667 0.0118672
0.869333 0.0118441
0.87 0.0118211
0.870667 0.0117982
0.871333 0.0117755
0.872 0.0117529
0.872667 0.0117304
0.873333 0.011708
0.874 0.0116857
0.874667 0.0116636
0.875333 0.0116416
0.876 0.0116197
0.876667 0.0115979
0.877333 0.0115763
0.878 0.0115547
0.878667 0.0115333
0.879333 0.011512
0.88 0.0114908
0.880667 0.0114698
0.881333 0.0114488
0.882 0.011428
0.882667 0.0114073
0.883333 0.0113868
0.884 0.0113663
0.884667 0.011346
0.885333 0.0113258
0.886 0.0113057
0.886667 0.0112857
0.887333 0.0112658
0.888 0.0112461
0.888667 0.0112265
0.889333 0.011207
0.89 0.0111876
0.890667 0.0111684
0.891333 0.0111492
0.892 0.0111302
0.892667 0.0111113
0.893333 0.0110926
0.894 0.0110739
0.894667 0.0110554
0.895333 0.011037
0.896 0.0110187
0.896667 0.0110005
0.897333 0.0109825
0.898 0.0109646
0.898667 0.0109468
0.899333 0.0109291
0.9 0.0109115
0.900667 0.0108941
0.901333 0.0108768
0.902 0.0108596
0.902667 0.0108425
0.903333 0.0108255
0.904 0.0108087
0.904667 0.010792
0.905333 0.0107754
0.906 0.0107589
0.906667 0.0107426
0.907333 0.0107263
0.908 0.0107102
0.908667 0.0106942
0.909333 0.0106784
0.91 0.0106626
0.910667 0.010647
0.911333 0.0106315
0.912 0.0106161
0.912667 0.0106008
0.913333 0.0105857
0.914 0.0105707
0.914667 0.0105558
0.915333 0.010541
0.916 0.0105263
0.916667 0.0105118
0.917333 0.0104974
0.918 0.0104831
0.918667 0.0104689
0.919333 0.0104549
0.92 0.0104409
0.920667 0.0104271
0.921333 0.0104134
0.922 0.0103999
0.922667 0.0103864
0.923333 0.0103731
0.924 0.0103599
0.924667 0.0103468
0.925333 0.0103338
0.926 0.010321
0.926667 0.0103083
0.927333 0.0102957
0.928 0.0102832
0.928667 0.0102708
0.929333 0.0102586
0.93 0.0102465
0.930667 0.0102345
0.931333 0.0102226
0.932 0.0102108
0.932667 0.0101992
0.933333 0.0101877
0.934 0.0101763
0.934667 0.010165
0.935333 0.0101539
0.936 0.0101429
0.936667 0.0101319
0.937333 0.0101212
0.938 0.0101105
0.938667 0.0100999
0.939333 0.0100895
0.94 0.0100792
0.940667 0.010069
0.941333 0.0100589
0.942 0.010049
0.942667 0.0100392
0.943333 0.0100294
0.944 0.0100199
0.944667 0.0100104
0.945333 0.010001
0.946 0.00999181
0.946667 0.00998269
0.947333 0.0099737
0.948 0.00996483
0.948667 0.00995608
0.949333 0.00994744
0.95 0.00993893
0.950667 0.00993053
0.951333 0.00992226
0.952 0.0099141
0.952667 0.00990606
0.953333 0.00989814
0.954 0.00989034
0.954667 0.00988265
0.955333 0.00987509
0.956 0.00986764
0.956667 0.00986031
0.957333 0.0098531
0.958 0.00984601
0.958667 0.00983904
0.959333 0.00983218
0.96 0.00982544
0.960667 0.00981882
0.961333 0.00981231
0.962 0.00980592
0.962667 0.00979965
0.963333 0.0097935
0.964 0.00978746
0.964667 0.00978154
0.965333 0.00977574
0.966 0.00977005
0.966667 0.00976448
0.967333 0.00975902
0.968 0.00975368
0.968667 0.00974846
0.969333 0.00974335
0.97 0.00973836
0.970667 0.00973348
0.971333 0.00972872
0.972 0.00972408
0.972667 0.00971954
0.973333 0.00971513
0.974 0.00971082
0.974667 0.00970663
0.975333 0.00970256
0.976 0.0096986
0.976667 0.00969475
0.977333 0.00969102
0.978 0.0096874
0.978667 0.00968389
0.979333 0.0096805
0.98 0.00967722
0.980667 0.00967405
0.981333 0.00967099
0.982 0.00966805
0.982667 0.00966522
0.983333 0.0096625
0.984 0.00965989
0.984667 0.00965739
0.985333 0.00965501
0.986 0.00965273
0.986667 0.00965057
0.987333 0.00964851
0.988 0.00964657
0.988667 0.00964474
0.989333 0.00964301
0.99 0.0096414
0.990667 0.0096399
0.991333 0.0096385
0.992 0.00963721
0.992667 0.00963604
0.993333 0.00963497
0.994 0.009634
0.994667 0.00963315
0.995333 0.0096324
0.996 0.00963177
0.996667 0.00963123
0.997333 0.00963081
0.998 0.00963049
0.998667 0.00963028
0.999333 0.00963017
