/*--------------------------------*- C++ -*----------------------------------*\
| =========                 |                                                 |
| \\      /  F ield         | foam-extend: Open Source CFD                    |
|  \\    /   O peration     | Version:     5.0                                |
|   \\  /    A nd           | Web:         http://www.foam-extend.org         |
|    \\/     M anipulation  |                                                 |
\*---------------------------------------------------------------------------*/
FoamFile
{
    version     2.0;
    format      ascii;
    class       volVectorField;
    location    "5";
    object      U.gas;
}
// * * * * * * * * * * * * * * * * * * * * * * * * * * * * * * * * * * * * * //

dimensions      [0 1 -1 0 0 0 0];

internalField   nonuniform List<vector> 
100
(
(0.000127794 0 0)
(0.000286022 0 0)
(0.000434878 0 0)
(0.00057951 0 0)
(0.000721566 0 0)
(0.00086405 0 0)
(0.00100882 0 0)
(0.00115331 0 0)
(0.00130227 0 0)
(0.00145343 0 0)
(0.00160581 0 0)
(0.00176765 0 0)
(0.00193836 0 0)
(0.002118 0 0)
(0.00231957 0 0)
(0.00254559 0 0)
(0.00280929 0 0)
(0.00314347 0 0)
(0.00360938 0 0)
(0.00433267 0 0)
(0.00544717 0 0)
(0.00628756 0 0)
(0.00578248 0 0)
(0.00545586 0 0)
(0.00528214 0 0)
(0.00512878 0 0)
(0.00508513 0 0)
(0.00503005 0 0)
(0.00497503 0 0)
(0.00498342 0 0)
(0.00502886 0 0)
(0.00492065 0 0)
(0.00491359 0 0)
(0.00498916 0 0)
(0.0050179 0 0)
(0.00513939 0 0)
(0.00516979 0 0)
(0.00526102 0 0)
(0.00541307 0 0)
(0.00538266 0 0)
(0.00532184 0 0)
(0.00535225 0 0)
(0.00535225 0 0)
(0.00529143 0 0)
(0.00532184 0 0)
(0.00538266 0 0)
(0.00535225 0 0)
(0.0054739 0 0)
(0.00556513 0 0)
(0.00556513 0 0)
(0.00562595 0 0)
(0.00556513 0 0)
(0.00553472 0 0)
(0.00568677 0 0)
(0.00574759 0 0)
(0.00574759 0 0)
(0.00574759 0 0)
(0.00574759 0 0)
(0.00574759 0 0)
(0.005778 0 0)
(0.00583882 0 0)
(0.00580841 0 0)
(0.005778 0 0)
(0.00580841 0 0)
(0.00580841 0 0)
(0.005778 0 0)
(0.00571718 0 0)
(0.00568677 0 0)
(0.00568677 0 0)
(0.00562595 0 0)
(0.00553472 0 0)
(0.00544349 0 0)
(0.00541307 0 0)
(0.0054739 0 0)
(0.00544349 0 0)
(0.00538266 0 0)
(0.00544349 0 0)
(0.00550431 0 0)
(0.00556513 0 0)
(0.00559554 0 0)
(0.00559554 0 0)
(0.00562595 0 0)
(0.00559554 0 0)
(0.00556513 0 0)
(0.00556513 0 0)
(0.00559554 0 0)
(0.00571718 0 0)
(0.00574759 0 0)
(0.005778 0 0)
(0.00586923 0 0)
(0.00589964 0 0)
(0.00580841 0 0)
(0.00580841 0 0)
(0.00583882 0 0)
(0.00580841 0 0)
(0.00586923 0 0)
(0.00589964 0 0)
(0.00593005 0 0)
(0.00599088 0 0)
(0.00586923 0 0)
)
;

boundaryField
{
    inlet
    {
        type            fixedValue;
        value           uniform (0 0 0);
    }
    outlet
    {
        type            zeroGradient;
    }
    yzfaces
    {
        type            empty;
    }
}


// ************************************************************************* //
