/*--------------------------------*- C++ -*----------------------------------*\
| =========                 |                                                 |
| \\      /  F ield         | foam-extend: Open Source CFD                    |
|  \\    /   O peration     | Version:     5.0                                |
|   \\  /    A nd           | Web:         http://www.foam-extend.org         |
|    \\/     M anipulation  |                                                 |
\*---------------------------------------------------------------------------*/
FoamFile
{
    version     2.0;
    format      ascii;
    class       volScalarField;
    location    "7";
    object      alpha.gas;
}
// * * * * * * * * * * * * * * * * * * * * * * * * * * * * * * * * * * * * * //

dimensions      [0 0 0 0 0 0 0];

internalField   nonuniform List<scalar> 
100
(
0.0885866
0.087076
0.0858439
0.0846425
0.0833325
0.0820827
0.0808383
0.0797197
0.0784292
0.0772085
0.0761335
0.0749795
0.0738603
0.0727192
0.0716778
0.0707853
0.0698252
0.0689763
0.0679544
0.0670467
0.0661866
0.0653065
0.0645345
0.0637818
0.0630353
0.0622318
0.0615899
0.0608365
0.0601222
0.0594125
0.0587429
0.0581497
0.0574644
0.0567967
0.0561939
0.055597
0.0550563
0.0544804
0.0540199
0.0534529
0.0529328
0.0525062
0.0520295
0.0515217
0.0511078
0.050677
0.0501972
0.0498436
0.049388
0.048926
0.0485748
0.0481848
0.0477888
0.0474379
0.0470077
0.046661
0.0462972
0.0459117
0.0455282
0.0451706
0.044884
0.044498
0.0442392
0.0439218
0.0435849
0.0432662
0.0429463
0.042661
0.0423332
0.0420513
0.0417387
0.0415072
0.0412157
0.040967
0.0407134
0.0404071
0.0401858
0.0399164
0.0396389
0.0393802
0.0391212
0.0388663
0.0386015
0.0383594
0.0381143
0.0378673
0.0376417
0.0374014
0.0371535
0.0369363
0.0366849
0.0364534
0.0362636
0.0360463
0.0358311
0.035623
0.035422
0.0352198
0.0350617
0.0349448
)
;

boundaryField
{
    inlet
    {
        type            fixedValue;
        value           uniform 0.2;
    }
    outlet
    {
        type            zeroGradient;
    }
    yzfaces
    {
        type            empty;
    }
}


// ************************************************************************* //
