/*--------------------------------*- C++ -*----------------------------------*\
| =========                 |                                                 |
| \\      /  F ield         | foam-extend: Open Source CFD                    |
|  \\    /   O peration     | Version:     5.0                                |
|   \\  /    A nd           | Web:         http://www.foam-extend.org         |
|    \\/     M anipulation  |                                                 |
\*---------------------------------------------------------------------------*/
FoamFile
{
    version     2.0;
    format      ascii;
    class       volScalarField;
    location    "7";
    object      CO2.gas;
}
// * * * * * * * * * * * * * * * * * * * * * * * * * * * * * * * * * * * * * //

dimensions      [0 0 0 0 0 0 0];

internalField   nonuniform List<scalar> 
100
(
0.088605
0.0870301
0.0858435
0.0846867
0.0833385
0.0820919
0.0808118
0.0797423
0.0784003
0.0771917
0.0761444
0.0749776
0.0738683
0.0726919
0.0716412
0.0707831
0.0698107
0.0690087
0.0679397
0.0670334
0.0661846
0.0652803
0.0645325
0.0637809
0.0630384
0.0622159
0.0616078
0.0608402
0.0601251
0.059414
0.0587312
0.0581642
0.0574727
0.0567879
0.0561975
0.0555941
0.0550592
0.054482
0.0540432
0.0534577
0.0529218
0.0525104
0.0520384
0.0515184
0.0511134
0.0506856
0.0501858
0.0498527
0.0493915
0.0489156
0.0485778
0.0481897
0.0477824
0.0474428
0.0470015
0.0466667
0.0463085
0.0459126
0.0455216
0.045165
0.0448901
0.0444851
0.0442455
0.0439225
0.043582
0.0432682
0.042946
0.042669
0.0423351
0.0420544
0.0417316
0.0415117
0.0412121
0.0409666
0.0407172
0.0403991
0.0401874
0.0399176
0.0396339
0.0393788
0.0391232
0.0388634
0.0385969
0.0383605
0.0381171
0.0378659
0.0376443
0.0374031
0.0371548
0.0369427
0.0366836
0.0364476
0.0362668
0.0360498
0.0358317
0.0356226
0.0354211
0.0352175
0.0350647
0.0349445
)
;

boundaryField
{
    inlet
    {
        type            fixedValue;
        value           uniform 0.2;
    }
    outlet
    {
        type            zeroGradient;
    }
    yzfaces
    {
        type            empty;
    }
}


// ************************************************************************* //
