/*--------------------------------*- C++ -*----------------------------------*\
| =========                 |                                                 |
| \\      /  F ield         | foam-extend: Open Source CFD                    |
|  \\    /   O peration     | Version:     5.0                                |
|   \\  /    A nd           | Web:         http://www.foam-extend.org         |
|    \\/     M anipulation  |                                                 |
\*---------------------------------------------------------------------------*/
FoamFile
{
    version     2.0;
    format      ascii;
    class       surfaceScalarField;
    location    "7";
    object      phi;
}
// * * * * * * * * * * * * * * * * * * * * * * * * * * * * * * * * * * * * * //

dimensions      [0 3 -1 0 0 0 0];

internalField   nonuniform List<scalar> 
99
(
1.22072e-06
1.2302e-06
1.23324e-06
1.22807e-06
1.22595e-06
1.22751e-06
1.23362e-06
1.23012e-06
1.23708e-06
1.237e-06
1.23237e-06
1.23433e-06
1.22819e-06
1.22883e-06
1.23466e-06
1.23406e-06
1.23474e-06
1.22556e-06
1.22926e-06
1.22856e-06
1.22928e-06
1.23154e-06
1.23034e-06
1.22834e-06
1.22715e-06
1.23122e-06
1.22765e-06
1.22479e-06
1.22556e-06
1.22451e-06
1.22796e-06
1.22528e-06
1.22213e-06
1.22521e-06
1.22425e-06
1.22796e-06
1.22705e-06
1.22929e-06
1.22284e-06
1.22461e-06
1.22769e-06
1.22617e-06
1.22445e-06
1.22511e-06
1.22578e-06
1.22301e-06
1.22682e-06
1.22534e-06
1.22383e-06
1.22501e-06
1.22447e-06
1.22206e-06
1.22548e-06
1.22235e-06
1.22533e-06
1.22349e-06
1.21972e-06
1.22026e-06
1.22162e-06
1.22312e-06
1.21973e-06
1.22372e-06
1.21938e-06
1.22049e-06
1.22114e-06
1.22156e-06
1.2214e-06
1.21862e-06
1.219e-06
1.21639e-06
1.21908e-06
1.21639e-06
1.21949e-06
1.21936e-06
1.21616e-06
1.21943e-06
1.21915e-06
1.21728e-06
1.21965e-06
1.2201e-06
1.21845e-06
1.21936e-06
1.22084e-06
1.21943e-06
1.21945e-06
1.2199e-06
1.21877e-06
1.21855e-06
1.21961e-06
1.21697e-06
1.21753e-06
1.21973e-06
1.21777e-06
1.21788e-06
1.21736e-06
1.21856e-06
1.21752e-06
1.21958e-06
1.2173e-06
)
;

boundaryField
{
    inlet
    {
        type            calculated;
        value           uniform -1.225e-06;
    }
    outlet
    {
        type            calculated;
        value           uniform 1.21852e-06;
    }
    yzfaces
    {
        type            empty;
    }
}


// ************************************************************************* //
