/*--------------------------------*- C++ -*----------------------------------*\
| =========                 |                                                 |
| \\      /  F ield         | foam-extend: Open Source CFD                    |
|  \\    /   O peration     | Version:     5.0                                |
|   \\  /    A nd           | Web:         http://www.foam-extend.org         |
|    \\/     M anipulation  |                                                 |
\*---------------------------------------------------------------------------*/
FoamFile
{
    version     2.0;
    format      ascii;
    class       volVectorField;
    location    "7";
    object      U.gas;
}
// * * * * * * * * * * * * * * * * * * * * * * * * * * * * * * * * * * * * * //

dimensions      [0 1 -1 0 0 0 0];

internalField   nonuniform List<vector> 
100
(
(0.0112717 0 0)
(0.0114551 0 0)
(0.0116275 0 0)
(0.0117754 0 0)
(0.0119134 0 0)
(0.0120649 0 0)
(0.0122514 0 0)
(0.0124209 0 0)
(0.0126318 0 0)
(0.0128136 0 0)
(0.0129369 0 0)
(0.0131015 0 0)
(0.0132484 0 0)
(0.0133853 0 0)
(0.0135494 0 0)
(0.0137095 0 0)
(0.0138624 0 0)
(0.0139634 0 0)
(0.0141155 0 0)
(0.0142628 0 0)
(0.0144094 0 0)
(0.0145704 0 0)
(0.0146941 0 0)
(0.0148081 0 0)
(0.0149339 0 0)
(0.0150868 0 0)
(0.0152003 0 0)
(0.0153195 0 0)
(0.0154369 0 0)
(0.0155674 0 0)
(0.0156945 0 0)
(0.0158186 0 0)
(0.0159362 0 0)
(0.0160564 0 0)
(0.0161794 0 0)
(0.0163114 0 0)
(0.0164374 0 0)
(0.0165562 0 0)
(0.016621 0 0)
(0.0167265 0 0)
(0.0168416 0 0)
(0.0169329 0 0)
(0.0170338 0 0)
(0.0171272 0 0)
(0.0172093 0 0)
(0.0173048 0 0)
(0.0174057 0 0)
(0.0174893 0 0)
(0.0175989 0 0)
(0.0176804 0 0)
(0.0177423 0 0)
(0.0178203 0 0)
(0.0179097 0 0)
(0.0179963 0 0)
(0.0180998 0 0)
(0.0181675 0 0)
(0.0182208 0 0)
(0.0182915 0 0)
(0.0183865 0 0)
(0.0184678 0 0)
(0.0185199 0 0)
(0.0186157 0 0)
(0.0186454 0 0)
(0.0187169 0 0)
(0.0188096 0 0)
(0.0188863 0 0)
(0.018955 0 0)
(0.0189956 0 0)
(0.0190568 0 0)
(0.0190949 0 0)
(0.0191578 0 0)
(0.0191961 0 0)
(0.0192778 0 0)
(0.019344 0 0)
(0.0193887 0 0)
(0.0194572 0 0)
(0.0195116 0 0)
(0.019573 0 0)
(0.0196346 0 0)
(0.019708 0 0)
(0.019756 0 0)
(0.0198068 0 0)
(0.0198816 0 0)
(0.0199267 0 0)
(0.0199721 0 0)
(0.0200246 0 0)
(0.0200619 0 0)
(0.0201105 0 0)
(0.0201654 0 0)
(0.0201935 0 0)
(0.0202374 0 0)
(0.0202884 0 0)
(0.0203166 0 0)
(0.0203578 0 0)
(0.0203951 0 0)
(0.0204367 0 0)
(0.0204743 0 0)
(0.0205113 0 0)
(0.0205117 0 0)
(0.020479 0 0)
)
;

boundaryField
{
    inlet
    {
        type            fixedValue;
        value           uniform (0.005 0 0);
    }
    outlet
    {
        type            zeroGradient;
    }
    yzfaces
    {
        type            empty;
    }
}


// ************************************************************************* //
