/*--------------------------------*- C++ -*----------------------------------*\
| =========                 |                                                 |
| \\      /  F ield         | foam-extend: Open Source CFD                    |
|  \\    /   O peration     | Version:     5.0                                |
|   \\  /    A nd           | Web:         http://www.foam-extend.org         |
|    \\/     M anipulation  |                                                 |
\*---------------------------------------------------------------------------*/
FoamFile
{
    version     2.0;
    format      ascii;
    class       volVectorField;
    location    "7";
    object      U.water;
}
// * * * * * * * * * * * * * * * * * * * * * * * * * * * * * * * * * * * * * //

dimensions      [0 1 -1 0 0 0 0];

internalField   nonuniform List<vector> 
100
(
(-2.42051e-06 0 0)
(2.57529e-05 0 0)
(6.42273e-05 0 0)
(6.86379e-05 0 0)
(7.59799e-05 0 0)
(9.40262e-05 0 0)
(0.000118803 0 0)
(0.000128172 0 0)
(0.000134245 0 0)
(0.000167044 0 0)
(0.000185445 0 0)
(0.000195732 0 0)
(0.000210734 0 0)
(0.000231779 0 0)
(0.000267398 0 0)
(0.000287961 0 0)
(0.000305179 0 0)
(0.000313385 0 0)
(0.000323816 0 0)
(0.000352915 0 0)
(0.000369855 0 0)
(0.000392571 0 0)
(0.000417624 0 0)
(0.00043352 0 0)
(0.00044449 0 0)
(0.000468407 0 0)
(0.000487207 0 0)
(0.000495898 0 0)
(0.000515035 0 0)
(0.000534389 0 0)
(0.000559755 0 0)
(0.000574394 0 0)
(0.00058357 0 0)
(0.000607282 0 0)
(0.000630006 0 0)
(0.000651227 0 0)
(0.000669674 0 0)
(0.000691333 0 0)
(0.000705624 0 0)
(0.000715689 0 0)
(0.000744312 0 0)
(0.000762706 0 0)
(0.000770392 0 0)
(0.000790686 0 0)
(0.000811563 0 0)
(0.000820695 0 0)
(0.000842516 0 0)
(0.00086012 0 0)
(0.000866357 0 0)
(0.000890246 0 0)
(0.000911095 0 0)
(0.000921629 0 0)
(0.000940249 0 0)
(0.000953122 0 0)
(0.000968858 0 0)
(0.00099 0 0)
(0.000999694 0 0)
(0.00101318 0 0)
(0.00103311 0 0)
(0.00105698 0 0)
(0.0010691 0 0)
(0.00108661 0 0)
(0.00110636 0 0)
(0.00111344 0 0)
(0.00113012 0 0)
(0.00114767 0 0)
(0.0011657 0 0)
(0.00117933 0 0)
(0.00119373 0 0)
(0.00120968 0 0)
(0.00122867 0 0)
(0.00124482 0 0)
(0.00125762 0 0)
(0.00127638 0 0)
(0.00128519 0 0)
(0.00130276 0 0)
(0.00132184 0 0)
(0.00133167 0 0)
(0.00134927 0 0)
(0.00136789 0 0)
(0.00138269 0 0)
(0.00139763 0 0)
(0.00141598 0 0)
(0.00143312 0 0)
(0.00144694 0 0)
(0.00146408 0 0)
(0.00147949 0 0)
(0.0014924 0 0)
(0.00151033 0 0)
(0.00152486 0 0)
(0.00153853 0 0)
(0.00156054 0 0)
(0.00157659 0 0)
(0.00158775 0 0)
(0.00160321 0 0)
(0.00161967 0 0)
(0.00163495 0 0)
(0.00165269 0 0)
(0.00167014 0 0)
(0.00168777 0 0)
)
;

boundaryField
{
    inlet
    {
        type            fixedValue;
        value           uniform (0 0 0);
    }
    outlet
    {
        type            zeroGradient;
    }
    yzfaces
    {
        type            empty;
    }
}


// ************************************************************************* //
