/*--------------------------------*- C++ -*----------------------------------*\
| =========                 |                                                 |
| \\      /  F ield         | foam-extend: Open Source CFD                    |
|  \\    /   O peration     | Version:     5.0                                |
|   \\  /    A nd           | Web:         http://www.foam-extend.org         |
|    \\/     M anipulation  |                                                 |
\*---------------------------------------------------------------------------*/
FoamFile
{
    version     2.0;
    format      ascii;
    class       volVectorField;
    location    "6";
    object      U.gas;
}
// * * * * * * * * * * * * * * * * * * * * * * * * * * * * * * * * * * * * * //

dimensions      [0 1 -1 0 0 0 0];

internalField   nonuniform List<vector> 
100
(
(0.000102339 0 0)
(0.000228695 0 0)
(0.000346971 0 0)
(0.000462617 0 0)
(0.000575048 0 0)
(0.000686835 0 0)
(0.000799928 0 0)
(0.000912066 0 0)
(0.00102534 0 0)
(0.00113967 0 0)
(0.00125593 0 0)
(0.0013724 0 0)
(0.00149026 0 0)
(0.00161209 0 0)
(0.00173854 0 0)
(0.00186988 0 0)
(0.00200474 0 0)
(0.0021523 0 0)
(0.00231077 0 0)
(0.00248394 0 0)
(0.00268355 0 0)
(0.00292689 0 0)
(0.00324158 0 0)
(0.00369446 0 0)
(0.00440139 0 0)
(0.00551419 0 0)
(0.00634459 0 0)
(0.00579567 0 0)
(0.00543262 0 0)
(0.00526901 0 0)
(0.00514526 0 0)
(0.00508952 0 0)
(0.00502174 0 0)
(0.00500844 0 0)
(0.0049808 0 0)
(0.00491377 0 0)
(0.00477432 0 0)
(0.00482494 0 0)
(0.0050506 0 0)
(0.00501796 0 0)
(0.00498735 0 0)
(0.00504815 0 0)
(0.00510897 0 0)
(0.00507856 0 0)
(0.00504815 0 0)
(0.00513938 0 0)
(0.00516979 0 0)
(0.00516979 0 0)
(0.00523061 0 0)
(0.00526102 0 0)
(0.00516979 0 0)
(0.00510897 0 0)
(0.00513938 0 0)
(0.00526102 0 0)
(0.00532184 0 0)
(0.00535225 0 0)
(0.00544349 0 0)
(0.00544349 0 0)
(0.00538266 0 0)
(0.00544349 0 0)
(0.00550431 0 0)
(0.0054739 0 0)
(0.0054739 0 0)
(0.00541307 0 0)
(0.00538266 0 0)
(0.00541307 0 0)
(0.00541307 0 0)
(0.0054739 0 0)
(0.0054739 0 0)
(0.00535225 0 0)
(0.00526102 0 0)
(0.00526102 0 0)
(0.00532184 0 0)
(0.00544349 0 0)
(0.00553472 0 0)
(0.00550431 0 0)
(0.00553472 0 0)
(0.00553472 0 0)
(0.0054739 0 0)
(0.0054739 0 0)
(0.00541307 0 0)
(0.00538266 0 0)
(0.00535225 0 0)
(0.00529143 0 0)
(0.00523061 0 0)
(0.0052002 0 0)
(0.00529143 0 0)
(0.00535225 0 0)
(0.00532184 0 0)
(0.00526102 0 0)
(0.00523061 0 0)
(0.00523061 0 0)
(0.0052002 0 0)
(0.00516979 0 0)
(0.00523061 0 0)
(0.00532184 0 0)
(0.00526102 0 0)
(0.00513938 0 0)
(0.00510897 0 0)
(0.00504815 0 0)
)
;

boundaryField
{
    inlet
    {
        type            fixedValue;
        value           uniform (0 0 0);
    }
    outlet
    {
        type            zeroGradient;
    }
    yzfaces
    {
        type            empty;
    }
}


// ************************************************************************* //
