/*--------------------------------*- C++ -*----------------------------------*\
| =========                 |                                                 |
| \\      /  F ield         | foam-extend: Open Source CFD                    |
|  \\    /   O peration     | Version:     5.0                                |
|   \\  /    A nd           | Web:         http://www.foam-extend.org         |
|    \\/     M anipulation  |                                                 |
\*---------------------------------------------------------------------------*/
FoamFile
{
    version     2.0;
    format      ascii;
    class       volVectorField;
    location    "6";
    object      U.water;
}
// * * * * * * * * * * * * * * * * * * * * * * * * * * * * * * * * * * * * * //

dimensions      [0 1 -1 0 0 0 0];

internalField   nonuniform List<vector> 
100
(
(0.00500617 0 0)
(0.0050049 0 0)
(0.00500359 0 0)
(0.00501394 0 0)
(0.00501203 0 0)
(0.00500778 0 0)
(0.00501549 0 0)
(0.00501656 0 0)
(0.00501864 0 0)
(0.00502219 0 0)
(0.0050263 0 0)
(0.00502814 0 0)
(0.00502384 0 0)
(0.00502307 0 0)
(0.00502678 0 0)
(0.00502937 0 0)
(0.0050261 0 0)
(0.00502815 0 0)
(0.00503175 0 0)
(0.00502925 0 0)
(0.00502413 0 0)
(0.00502118 0 0)
(0.0050164 0 0)
(0.00501264 0 0)
(0.00500632 0 0)
(0.0049753 0 0)
(0.00489333 0 0)
(0.0048249 0 0)
(0.00479667 0 0)
(0.00479626 0 0)
(0.0047536 0 0)
(0.00470478 0 0)
(0.00467653 0 0)
(0.00450628 0 0)
(0.00447524 0 0)
(0.00437523 0 0)
(0.00421994 0 0)
(0.00406642 0 0)
(0.00449336 0 0)
(0.00452164 0 0)
(0.0034721 0 0)
(0.000310438 0 0)
(2.75592e-05 0 0)
(2.46865e-06 0 0)
(2.14658e-07 0 0)
(1.9091e-08 0 0)
(1.69537e-09 0 0)
(1.50021e-10 0 0)
(1.33061e-11 0 0)
(1.18852e-12 0 0)
(1.04101e-13 0 0)
(9.20561e-15 0 0)
(8.1211e-16 0 0)
(7.20955e-17 0 0)
(6.33097e-18 0 0)
(5.51463e-19 0 0)
(4.89194e-20 0 0)
(4.30208e-21 0 0)
(3.72064e-22 0 0)
(3.26388e-23 0 0)
(2.89135e-24 0 0)
(2.52122e-25 0 0)
(2.20357e-26 0 0)
(1.90111e-27 0 0)
(1.65112e-28 0 0)
(1.45336e-29 0 0)
(1.26314e-30 0 0)
(1.09547e-31 0 0)
(9.48394e-33 0 0)
(8.11023e-34 0 0)
(7.00773e-35 0 0)
(6.05682e-36 0 0)
(5.29286e-37 0 0)
(4.5543e-38 0 0)
(3.92885e-39 0 0)
(3.38866e-40 0 0)
(2.92168e-41 0 0)
(2.51817e-42 0 0)
(2.16867e-43 0 0)
(1.84027e-44 0 0)
(1.58431e-45 0 0)
(1.36225e-46 0 0)
(1.17043e-47 0 0)
(1.00594e-48 0 0)
(8.62188e-50 0 0)
(7.38871e-51 0 0)
(6.3501e-52 0 0)
(5.49971e-53 0 0)
(4.7287e-54 0 0)
(4.02047e-55 0 0)
(3.4933e-56 0 0)
(3.00237e-57 0 0)
(2.58048e-58 0 0)
(2.19331e-59 0 0)
(1.90087e-60 0 0)
(1.63484e-61 0 0)
(1.4051e-62 0 0)
(1.19353e-63 0 0)
(1.02403e-64 0 0)
(8.01109e-66 0 0)
)
;

boundaryField
{
    inlet
    {
        type            fixedValue;
        value           uniform (0.005 0 0);
    }
    outlet
    {
        type            zeroGradient;
    }
    yzfaces
    {
        type            empty;
    }
}


// ************************************************************************* //
