/*--------------------------------*- C++ -*----------------------------------*\
| =========                 |                                                 |
| \\      /  F ield         | foam-extend: Open Source CFD                    |
|  \\    /   O peration     | Version:     5.0                                |
|   \\  /    A nd           | Web:         http://www.foam-extend.org         |
|    \\/     M anipulation  |                                                 |
\*---------------------------------------------------------------------------*/
FoamFile
{
    version     2.0;
    format      ascii;
    class       volScalarField;
    location    "6";
    object      alpha.gas;
}
// * * * * * * * * * * * * * * * * * * * * * * * * * * * * * * * * * * * * * //

dimensions      [0 0 0 0 0 0 0];

internalField   nonuniform List<scalar> 
100
(
0.0866359
0.0851105
0.0836602
0.0821906
0.0808038
0.0794867
0.0780535
0.0768117
0.0754044
0.0742533
0.0730875
0.0718194
0.0707054
0.0696057
0.0686039
0.0674921
0.0665528
0.0655818
0.0646488
0.0637844
0.0628759
0.0620344
0.0612688
0.0604347
0.0596968
0.0589048
0.0581972
0.0574811
0.0568076
0.0560348
0.0554243
0.0547807
0.0541566
0.0535239
0.0529551
0.0523901
0.0518252
0.0512272
0.0507316
0.0502581
0.0497863
0.0492827
0.0487898
0.048314
0.0478162
0.0473855
0.0469374
0.0465421
0.0460782
0.0456745
0.0452788
0.0449131
0.0444854
0.0441106
0.0437299
0.0433673
0.0429855
0.0426359
0.0422667
0.0419195
0.041595
0.0412885
0.0409399
0.0405988
0.0402929
0.0399779
0.0396631
0.0393874
0.0390623
0.0387866
0.0384831
0.0382209
0.0379308
0.0376546
0.0373525
0.0370914
0.0368442
0.0365752
0.036314
0.0360298
0.0357745
0.0355237
0.0352612
0.0350357
0.0347793
0.0345406
0.0342775
0.0340261
0.0338005
0.0335521
0.0333114
0.0330626
0.032846
0.0326103
0.0323516
0.0321402
0.0319295
0.0317018
0.0315233
0.0313978
)
;

boundaryField
{
    inlet
    {
        type            fixedValue;
        value           uniform 0.2;
    }
    outlet
    {
        type            zeroGradient;
    }
    yzfaces
    {
        type            empty;
    }
}


// ************************************************************************* //
