/*--------------------------------*- C++ -*----------------------------------*\
| =========                 |                                                 |
| \\      /  F ield         | foam-extend: Open Source CFD                    |
|  \\    /   O peration     | Version:     5.0                                |
|   \\  /    A nd           | Web:         http://www.foam-extend.org         |
|    \\/     M anipulation  |                                                 |
\*---------------------------------------------------------------------------*/
FoamFile
{
    version     2.0;
    format      ascii;
    class       surfaceScalarField;
    location    "6";
    object      phi;
}
// * * * * * * * * * * * * * * * * * * * * * * * * * * * * * * * * * * * * * //

dimensions      [0 3 -1 0 0 0 0];

internalField   nonuniform List<scalar> 
99
(
1.22283e-06
1.22696e-06
1.22471e-06
1.22464e-06
1.2233e-06
1.21782e-06
1.22308e-06
1.21163e-06
1.21964e-06
1.21992e-06
1.21257e-06
1.21573e-06
1.21578e-06
1.21726e-06
1.21441e-06
1.22046e-06
1.21732e-06
1.21458e-06
1.21697e-06
1.21616e-06
1.219e-06
1.2206e-06
1.21745e-06
1.22181e-06
1.21426e-06
1.22093e-06
1.21841e-06
1.21967e-06
1.21489e-06
1.22248e-06
1.22107e-06
1.21876e-06
1.21554e-06
1.21944e-06
1.21679e-06
1.2151e-06
1.21744e-06
1.22069e-06
1.22076e-06
1.21717e-06
1.21396e-06
1.21333e-06
1.21185e-06
1.20981e-06
1.21095e-06
1.20914e-06
1.21166e-06
1.20894e-06
1.21097e-06
1.21142e-06
1.21153e-06
1.20748e-06
1.21199e-06
1.20959e-06
1.20984e-06
1.20881e-06
1.21083e-06
1.20843e-06
1.20979e-06
1.21032e-06
1.21187e-06
1.20919e-06
1.20893e-06
1.21147e-06
1.21128e-06
1.20894e-06
1.21374e-06
1.21044e-06
1.21118e-06
1.20998e-06
1.21149e-06
1.21091e-06
1.21044e-06
1.20809e-06
1.2108e-06
1.21319e-06
1.21036e-06
1.20918e-06
1.2094e-06
1.21014e-06
1.20937e-06
1.21035e-06
1.21149e-06
1.20854e-06
1.20952e-06
1.20923e-06
1.20971e-06
1.21094e-06
1.20824e-06
1.20895e-06
1.20877e-06
1.20925e-06
1.20753e-06
1.20507e-06
1.20792e-06
1.20812e-06
1.20566e-06
1.20578e-06
1.20597e-06
)
;

boundaryField
{
    inlet
    {
        type            calculated;
        value           uniform -1.225e-06;
    }
    outlet
    {
        type            calculated;
        value           uniform 1.20884e-06;
    }
    yzfaces
    {
        type            empty;
    }
}


// ************************************************************************* //
