/*--------------------------------*- C++ -*----------------------------------*\
| =========                 |                                                 |
| \\      /  F ield         | foam-extend: Open Source CFD                    |
|  \\    /   O peration     | Version:     5.0                                |
|   \\  /    A nd           | Web:         http://www.foam-extend.org         |
|    \\/     M anipulation  |                                                 |
\*---------------------------------------------------------------------------*/
FoamFile
{
    version     2.0;
    format      ascii;
    class       volVectorField;
    location    "6";
    object      U.gas;
}
// * * * * * * * * * * * * * * * * * * * * * * * * * * * * * * * * * * * * * //

dimensions      [0 1 -1 0 0 0 0];

internalField   nonuniform List<vector> 
100
(
(0.0115252 0 0)
(0.0117155 0 0)
(0.0119009 0 0)
(0.0120732 0 0)
(0.0122328 0 0)
(0.0123831 0 0)
(0.0125741 0 0)
(0.0127155 0 0)
(0.0128934 0 0)
(0.0130752 0 0)
(0.0132312 0 0)
(0.0134005 0 0)
(0.0135705 0 0)
(0.0137428 0 0)
(0.0139018 0 0)
(0.0141016 0 0)
(0.0142563 0 0)
(0.0143913 0 0)
(0.0145391 0 0)
(0.0146995 0 0)
(0.0148768 0 0)
(0.0150373 0 0)
(0.0151692 0 0)
(0.015334 0 0)
(0.0154482 0 0)
(0.0155958 0 0)
(0.0157483 0 0)
(0.0158799 0 0)
(0.0160026 0 0)
(0.0161726 0 0)
(0.0163119 0 0)
(0.0164269 0 0)
(0.0165191 0 0)
(0.0166492 0 0)
(0.0167644 0 0)
(0.0168571 0 0)
(0.0169921 0 0)
(0.0171501 0 0)
(0.0172529 0 0)
(0.0173286 0 0)
(0.0173922 0 0)
(0.0174832 0 0)
(0.017573 0 0)
(0.0176543 0 0)
(0.0177527 0 0)
(0.0178308 0 0)
(0.0179314 0 0)
(0.0180194 0 0)
(0.0181277 0 0)
(0.0182192 0 0)
(0.0183056 0 0)
(0.0183648 0 0)
(0.0184737 0 0)
(0.0185608 0 0)
(0.0186298 0 0)
(0.0187049 0 0)
(0.0187986 0 0)
(0.0188698 0 0)
(0.0189476 0 0)
(0.0190284 0 0)
(0.0191068 0 0)
(0.0191713 0 0)
(0.0192389 0 0)
(0.0193238 0 0)
(0.019401 0 0)
(0.0194535 0 0)
(0.0195344 0 0)
(0.0196045 0 0)
(0.0196614 0 0)
(0.0197062 0 0)
(0.0197759 0 0)
(0.0198304 0 0)
(0.019892 0 0)
(0.019928 0 0)
(0.0199939 0 0)
(0.0200704 0 0)
(0.0201176 0 0)
(0.0201481 0 0)
(0.0201957 0 0)
(0.0202633 0 0)
(0.0203015 0 0)
(0.0203549 0 0)
(0.0204196 0 0)
(0.0204368 0 0)
(0.0204776 0 0)
(0.0205265 0 0)
(0.0205844 0 0)
(0.0206326 0 0)
(0.0206546 0 0)
(0.0206897 0 0)
(0.0207341 0 0)
(0.0207747 0 0)
(0.0207879 0 0)
(0.0208037 0 0)
(0.0208484 0 0)
(0.0208847 0 0)
(0.0209005 0 0)
(0.0209101 0 0)
(0.0209002 0 0)
(0.0208865 0 0)
)
;

boundaryField
{
    inlet
    {
        type            fixedValue;
        value           uniform (0.005 0 0);
    }
    outlet
    {
        type            zeroGradient;
    }
    yzfaces
    {
        type            empty;
    }
}


// ************************************************************************* //
