/*--------------------------------*- C++ -*----------------------------------*\
| =========                 |                                                 |
| \\      /  F ield         | foam-extend: Open Source CFD                    |
|  \\    /   O peration     | Version:     5.0                                |
|   \\  /    A nd           | Web:         http://www.foam-extend.org         |
|    \\/     M anipulation  |                                                 |
\*---------------------------------------------------------------------------*/
FoamFile
{
    version     2.0;
    format      ascii;
    class       volVectorField;
    location    "6";
    object      U.water;
}
// * * * * * * * * * * * * * * * * * * * * * * * * * * * * * * * * * * * * * //

dimensions      [0 1 -1 0 0 0 0];

internalField   nonuniform List<vector> 
100
(
(5.4505e-06 0 0)
(2.4384e-05 0 0)
(4.34245e-05 0 0)
(6.30738e-05 0 0)
(8.98495e-05 0 0)
(0.000100285 0 0)
(0.000121653 0 0)
(0.000138489 0 0)
(0.000161603 0 0)
(0.000197688 0 0)
(0.000203414 0 0)
(0.000224116 0 0)
(0.000254814 0 0)
(0.00027993 0 0)
(0.000295282 0 0)
(0.000317591 0 0)
(0.000346326 0 0)
(0.000363084 0 0)
(0.000388132 0 0)
(0.000407517 0 0)
(0.000427006 0 0)
(0.000456077 0 0)
(0.000473738 0 0)
(0.000493776 0 0)
(0.000513941 0 0)
(0.000533599 0 0)
(0.000558131 0 0)
(0.00057778 0 0)
(0.00059104 0 0)
(0.00061555 0 0)
(0.000645277 0 0)
(0.000660872 0 0)
(0.000678612 0 0)
(0.000701421 0 0)
(0.000725089 0 0)
(0.000741584 0 0)
(0.000757587 0 0)
(0.000783754 0 0)
(0.00081225 0 0)
(0.000829233 0 0)
(0.000841501 0 0)
(0.000856639 0 0)
(0.000876168 0 0)
(0.000893197 0 0)
(0.000914674 0 0)
(0.000936147 0 0)
(0.000956658 0 0)
(0.000973156 0 0)
(0.000990274 0 0)
(0.00101459 0 0)
(0.00103477 0 0)
(0.00104801 0 0)
(0.00106571 0 0)
(0.00108844 0 0)
(0.00110607 0 0)
(0.00112379 0 0)
(0.00114344 0 0)
(0.00116238 0 0)
(0.00118029 0 0)
(0.00120279 0 0)
(0.00122408 0 0)
(0.00123896 0 0)
(0.00125329 0 0)
(0.00127597 0 0)
(0.00129708 0 0)
(0.00131314 0 0)
(0.00133502 0 0)
(0.00135287 0 0)
(0.00136944 0 0)
(0.00138881 0 0)
(0.00140739 0 0)
(0.00142662 0 0)
(0.0014425 0 0)
(0.00145846 0 0)
(0.00147854 0 0)
(0.00150358 0 0)
(0.00151996 0 0)
(0.0015337 0 0)
(0.00155045 0 0)
(0.0015703 0 0)
(0.00159096 0 0)
(0.0016085 0 0)
(0.00162977 0 0)
(0.00164734 0 0)
(0.00166304 0 0)
(0.00168167 0 0)
(0.00170008 0 0)
(0.00172302 0 0)
(0.00174059 0 0)
(0.00175685 0 0)
(0.00177663 0 0)
(0.00179759 0 0)
(0.00181654 0 0)
(0.00182995 0 0)
(0.00185156 0 0)
(0.00187596 0 0)
(0.00189132 0 0)
(0.00190957 0 0)
(0.00193228 0 0)
(0.00195636 0 0)
)
;

boundaryField
{
    inlet
    {
        type            fixedValue;
        value           uniform (0 0 0);
    }
    outlet
    {
        type            zeroGradient;
    }
    yzfaces
    {
        type            empty;
    }
}


// ************************************************************************* //
