/*--------------------------------*- C++ -*----------------------------------*\
| =========                 |                                                 |
| \\      /  F ield         | foam-extend: Open Source CFD                    |
|  \\    /   O peration     | Version:     5.0                                |
|   \\  /    A nd           | Web:         http://www.foam-extend.org         |
|    \\/     M anipulation  |                                                 |
\*---------------------------------------------------------------------------*/
FoamFile
{
    version     2.0;
    format      ascii;
    class       surfaceScalarField;
    location    "2";
    object      phi;
}
// * * * * * * * * * * * * * * * * * * * * * * * * * * * * * * * * * * * * * //

dimensions      [0 3 -1 0 0 0 0];

internalField   nonuniform List<scalar> 
99
(
1.22443e-06
1.22609e-06
1.22424e-06
1.2262e-06
1.22426e-06
1.22283e-06
1.22525e-06
1.22325e-06
1.22949e-06
1.22638e-06
1.23146e-06
1.20853e-06
1.19388e-06
1.19371e-06
1.19889e-06
1.20376e-06
1.18654e-06
1.2124e-06
1.21984e-06
1.22401e-06
1.21565e-06
1.19203e-06
1.23023e-06
1.18508e-06
1.20788e-06
1.19219e-06
1.19278e-06
1.20735e-06
1.19963e-06
1.20735e-06
1.19292e-06
1.17738e-06
1.1774e-06
1.169e-06
1.17018e-06
1.1923e-06
1.15517e-06
1.18551e-06
1.14767e-06
1.14727e-06
1.14757e-06
1.14625e-06
1.14043e-06
1.14067e-06
1.11748e-06
1.14723e-06
1.13251e-06
1.15443e-06
1.16922e-06
1.17024e-06
1.14655e-06
1.18474e-06
1.155e-06
1.13276e-06
1.14694e-06
1.14762e-06
1.14029e-06
1.15484e-06
1.13225e-06
1.13263e-06
1.1473e-06
1.16218e-06
1.16974e-06
1.1697e-06
1.18515e-06
1.18436e-06
1.1924e-06
1.15423e-06
1.19932e-06
1.19182e-06
1.19958e-06
1.2215e-06
1.2066e-06
1.22901e-06
1.22976e-06
1.23724e-06
1.222e-06
1.20738e-06
1.20748e-06
1.19239e-06
1.20689e-06
1.19922e-06
1.20704e-06
1.16901e-06
1.20693e-06
1.20677e-06
1.20734e-06
1.19241e-06
1.19113e-06
1.19996e-06
1.1998e-06
1.19925e-06
1.19904e-06
1.20052e-06
1.17659e-06
1.20727e-06
1.18362e-06
1.21367e-06
1.18408e-06
)
;

boundaryField
{
    inlet
    {
        type            calculated;
        value           uniform -1.225e-06;
    }
    outlet
    {
        type            calculated;
        value           uniform 1.19192e-06;
    }
    yzfaces
    {
        type            empty;
    }
}


// ************************************************************************* //
