/*--------------------------------*- C++ -*----------------------------------*\
| =========                 |                                                 |
| \\      /  F ield         | foam-extend: Open Source CFD                    |
|  \\    /   O peration     | Version:     5.0                                |
|   \\  /    A nd           | Web:         http://www.foam-extend.org         |
|    \\/     M anipulation  |                                                 |
\*---------------------------------------------------------------------------*/
FoamFile
{
    version     2.0;
    format      ascii;
    class       volScalarField;
    location    "2";
    object      XCO2;
}
// * * * * * * * * * * * * * * * * * * * * * * * * * * * * * * * * * * * * * //

dimensions      [0 0 0 0 0 0 0];

internalField   nonuniform List<scalar> 
100
(
0
0.00173691
0
0.00518788
0
0.0125808
0.000989282
0.0120006
0.0159105
0.0080544
0.0301236
0
0.0312563
0
0.0604651
0.0118692
0.0335642
0.0786817
0
0.0641571
0.0458393
0
0.0395653
0.0260455
0.102675
0
0.0264284
0.0105859
0.0297415
0.0448337
0.0481933
0.00922049
0.00212529
0.0185825
0.0515316
0.0281863
0
0.0294299
0.0150215
0.0443937
0.010812
0.0377237
0.0328647
0.0476363
0.0314964
0.0113166
0.0305155
0.0620932
0.0209476
0.0309838
0.00520238
0.0246308
0.0308876
0
0.0286528
0.0703251
0.043981
0.0060437
0.0622318
0.0172809
0.0498707
0.0304084
0.0298195
0.0615381
0.0183837
0.0317459
0.0392058
0
0.018189
0.00728082
0.0112
0.0442801
0.0140873
0.0168815
0.073895
0.0110836
0.0335406
0.00476078
0.0271467
0.00442723
0.00481239
0.0423167
0.0368396
0.0269936
0.0103423
0.0493424
0.0391533
0.019281
0
0.108463
0.0118334
0.0365079
0.0383464
0.0471579
0.0165402
0.0313228
0.0113235
0.0419855
0.00633008
0.156266
)
;

boundaryField
{
    inlet
    {
        type            fixedValue;
        value           uniform 0;
    }
    outlet
    {
        type            zeroGradient;
    }
    yzfaces
    {
        type            empty;
    }
}


// ************************************************************************* //
