/*--------------------------------*- C++ -*----------------------------------*\
| =========                 |                                                 |
| \\      /  F ield         | foam-extend: Open Source CFD                    |
|  \\    /   O peration     | Version:     5.0                                |
|   \\  /    A nd           | Web:         http://www.foam-extend.org         |
|    \\/     M anipulation  |                                                 |
\*---------------------------------------------------------------------------*/
FoamFile
{
    version     2.0;
    format      ascii;
    class       volScalarField;
    location    "2";
    object      XH2O;
}
// * * * * * * * * * * * * * * * * * * * * * * * * * * * * * * * * * * * * * //

dimensions      [0 0 0 0 0 0 0];

internalField   nonuniform List<scalar> 
100
(
1
0.998263
1
0.994812
1
0.987419
0.999011
0.987999
0.98409
0.991946
0.969876
1
0.968744
1
0.939535
0.988131
0.966436
0.921318
1
0.935843
0.954161
1
0.960435
0.973954
0.897325
1
0.973572
0.989414
0.970258
0.955166
0.951807
0.99078
0.997875
0.981418
0.948468
0.971814
1
0.97057
0.984979
0.955606
0.989188
0.962276
0.967135
0.952364
0.968504
0.988683
0.969485
0.937907
0.979052
0.969016
0.994798
0.975369
0.969112
1
0.971347
0.929675
0.956019
0.993956
0.937768
0.982719
0.950129
0.969592
0.970181
0.938462
0.981616
0.968254
0.960794
1
0.981811
0.992719
0.9888
0.95572
0.985913
0.983119
0.926105
0.988916
0.966459
0.995239
0.972853
0.995573
0.995188
0.957683
0.96316
0.973006
0.989658
0.950658
0.960847
0.980719
1
0.891537
0.988167
0.963492
0.961654
0.952842
0.98346
0.968677
0.988676
0.958014
0.99367
0.843734
)
;

boundaryField
{
    inlet
    {
        type            fixedValue;
        value           uniform 1;
    }
    outlet
    {
        type            zeroGradient;
    }
    yzfaces
    {
        type            empty;
    }
}


// ************************************************************************* //
