/*--------------------------------*- C++ -*----------------------------------*\
| =========                 |                                                 |
| \\      /  F ield         | foam-extend: Open Source CFD                    |
|  \\    /   O peration     | Version:     5.0                                |
|   \\  /    A nd           | Web:         http://www.foam-extend.org         |
|    \\/     M anipulation  |                                                 |
\*---------------------------------------------------------------------------*/
FoamFile
{
    version     2.0;
    format      ascii;
    class       volVectorField;
    location    "8";
    object      U.water;
}
// * * * * * * * * * * * * * * * * * * * * * * * * * * * * * * * * * * * * * //

dimensions      [0 1 -1 0 0 0 0];

internalField   nonuniform List<vector> 
100
(
(0.00499782 0 0)
(0.00500437 0 0)
(0.00500642 0 0)
(0.00500576 0 0)
(0.00501276 0 0)
(0.00501361 0 0)
(0.00501401 0 0)
(0.00501585 0 0)
(0.00501245 0 0)
(0.00501097 0 0)
(0.00501664 0 0)
(0.00501612 0 0)
(0.00501517 0 0)
(0.00501563 0 0)
(0.00501612 0 0)
(0.00501907 0 0)
(0.00501818 0 0)
(0.00501828 0 0)
(0.00502038 0 0)
(0.00501775 0 0)
(0.00501322 0 0)
(0.00501935 0 0)
(0.00502423 0 0)
(0.00501572 0 0)
(0.00501895 0 0)
(0.00502304 0 0)
(0.00502068 0 0)
(0.0050233 0 0)
(0.00502196 0 0)
(0.00502345 0 0)
(0.00502456 0 0)
(0.00501639 0 0)
(0.00501545 0 0)
(0.00501673 0 0)
(0.0050088 0 0)
(0.00497453 0 0)
(0.00488982 0 0)
(0.00483449 0 0)
(0.00478263 0 0)
(0.00471664 0 0)
(0.00470586 0 0)
(0.00466996 0 0)
(0.0046287 0 0)
(0.00463131 0 0)
(0.00452366 0 0)
(0.00439495 0 0)
(0.00419773 0 0)
(0.00398962 0 0)
(0.00471236 0 0)
(0.004425 0 0)
(0.00395737 0 0)
(0.000353904 0 0)
(3.18471e-05 0 0)
(2.78849e-06 0 0)
(2.48251e-07 0 0)
(2.2025e-08 0 0)
(1.95447e-09 0 0)
(1.73179e-10 0 0)
(1.5153e-11 0 0)
(1.34339e-12 0 0)
(1.20142e-13 0 0)
(1.06083e-14 0 0)
(9.3441e-16 0 0)
(8.21183e-17 0 0)
(7.18182e-18 0 0)
(6.30024e-19 0 0)
(5.51432e-20 0 0)
(4.75098e-21 0 0)
(4.18445e-22 0 0)
(3.65327e-23 0 0)
(3.1879e-24 0 0)
(2.76984e-25 0 0)
(2.41318e-26 0 0)
(2.09584e-27 0 0)
(1.8216e-28 0 0)
(1.58305e-29 0 0)
(1.38027e-30 0 0)
(1.20408e-31 0 0)
(1.05087e-32 0 0)
(9.17473e-34 0 0)
(8.0072e-35 0 0)
(6.91821e-36 0 0)
(6.04397e-37 0 0)
(5.26963e-38 0 0)
(4.61233e-39 0 0)
(4.07165e-40 0 0)
(3.57161e-41 0 0)
(3.10093e-42 0 0)
(2.75556e-43 0 0)
(2.42038e-44 0 0)
(2.1028e-45 0 0)
(1.87065e-46 0 0)
(1.64002e-47 0 0)
(1.42279e-48 0 0)
(1.26317e-49 0 0)
(1.11044e-50 0 0)
(9.75853e-52 0 0)
(8.60892e-53 0 0)
(7.58609e-54 0 0)
(6.09875e-55 0 0)
)
;

boundaryField
{
    inlet
    {
        type            fixedValue;
        value           uniform (0.005 0 0);
    }
    outlet
    {
        type            zeroGradient;
    }
    yzfaces
    {
        type            empty;
    }
}


// ************************************************************************* //
