/*--------------------------------*- C++ -*----------------------------------*\
| =========                 |                                                 |
| \\      /  F ield         | foam-extend: Open Source CFD                    |
|  \\    /   O peration     | Version:     5.0                                |
|   \\  /    A nd           | Web:         http://www.foam-extend.org         |
|    \\/     M anipulation  |                                                 |
\*---------------------------------------------------------------------------*/
FoamFile
{
    version     2.0;
    format      ascii;
    class       volScalarField;
    location    "8";
    object      XH2O;
}
// * * * * * * * * * * * * * * * * * * * * * * * * * * * * * * * * * * * * * //

dimensions      [0 0 0 0 0 0 0];

internalField   nonuniform List<scalar> 
100
(
-1.27799e+11
1.23642e+14
-4.25376e+14
1.08907e+15
-2.66056e+15
6.71181e+15
-1.87544e+16
5.76886e+16
-1.85726e+17
5.98345e+17
-1.87292e+18
5.63562e+18
-1.62519e+19
4.49173e+19
-1.19179e+20
3.04009e+20
-7.46716e+20
1.77041e+21
-4.05345e+21
8.97972e+21
-1.92938e+22
4.02921e+22
-8.18624e+22
1.62298e+23
-3.14725e+23
5.94868e+23
-1.08995e+24
1.91058e+24
-3.11775e+24
4.49221e+24
-5.01939e+24
2.18437e+24
7.62813e+24
-2.2211e+25
4.02502e+24
2.12385e+26
-1.16524e+27
4.35141e+27
-1.31402e+28
3.4433e+28
-8.81424e+28
2.65777e+29
-9.3218e+29
2.48746e+30
1.41376e+30
-5.776e+31
1.54772e+32
3.06506e+33
1.19109e+34
2.18038e+34
2.54583e+34
6.28976e+33
1.08239e+32
1.56467e+29
2.00569e+25
2.27597e+20
2.29329e+14
2.07488e+07
0.1638
1.13531e-10
7.05514e-21
3.88073e-32
1.88441e-44
8.08104e-58
3.02182e-72
9.93246e-88
2.90609e-104
7.23303e-122
1.58331e-140
3.0273e-160
5.0729e-181
7.36567e-203
9.34703e-226
1.02935e-249
9.85396e-275
8.1709e-301
0
0
0
0
0
0
0
0
0
0
0
0
0
0
0
0
0
0
0
0
0
0
0
0
)
;

boundaryField
{
    inlet
    {
        type            fixedValue;
        value           uniform 0.5;
    }
    outlet
    {
        type            zeroGradient;
    }
    yzfaces
    {
        type            empty;
    }
}


// ************************************************************************* //
