/*--------------------------------*- C++ -*----------------------------------*\
| =========                 |                                                 |
| \\      /  F ield         | foam-extend: Open Source CFD                    |
|  \\    /   O peration     | Version:     5.0                                |
|   \\  /    A nd           | Web:         http://www.foam-extend.org         |
|    \\/     M anipulation  |                                                 |
\*---------------------------------------------------------------------------*/
FoamFile
{
    version     2.0;
    format      ascii;
    class       volScalarField;
    location    "5";
    object      S.water;
}
// * * * * * * * * * * * * * * * * * * * * * * * * * * * * * * * * * * * * * //

dimensions      [0 0 0 0 0 0 0];

internalField   nonuniform List<scalar> 
100
(
0.999116
0.998567
0.998054
0.997554
0.99706
0.996569
0.996076
0.995577
0.995073
0.994557
0.994029
0.993479
0.992903
0.992291
0.991623
0.990875
0.99
0.988906
0.987435
0.985221
0.981241
0.972234
0.945519
0.867338
0.733995
0.594776
0.467719
0.356727
0.267884
0.196934
0.141614
0.10344
0.0790824
0.0651701
0.0569276
0.0537333
0.0514597
0.0506984
0.0501111
0.0498941
0.0501247
0.0496406
0.0498729
0.0501447
0.0496797
0.0495859
0.0498011
0.0494704
0.0496072
0.0494607
0.049677
0.0492699
0.0492041
0.0498846
0.0500527
0.0499494
0.0501698
0.0503425
0.0498651
0.0504617
0.0499412
0.0499118
0.0497231
0.0501514
0.0502252
0.0500894
0.0497886
0.0502191
0.0504815
0.0503293
0.0501081
0.0500098
0.0499117
0.0497699
0.0502497
0.049694
0.0498258
0.0498215
0.0499
0.0503549
0.0502738
0.0502821
0.0505761
0.0508622
0.0509291
0.05079
0.0504891
0.050716
0.0500678
0.0499676
0.0500675
0.0500005
0.0499564
0.050386
0.0504378
0.050727
0.0514438
0.0508847
0.0515909
0.0522556
)
;

boundaryField
{
    inlet
    {
        type            calculated;
        value           uniform 1;
    }
    outlet
    {
        type            calculated;
        value           uniform 0.0522556;
    }
    yzfaces
    {
        type            empty;
    }
}


// ************************************************************************* //
