/*--------------------------------*- C++ -*----------------------------------*\
| =========                 |                                                 |
| \\      /  F ield         | foam-extend: Open Source CFD                    |
|  \\    /   O peration     | Version:     5.0                                |
|   \\  /    A nd           | Web:         http://www.foam-extend.org         |
|    \\/     M anipulation  |                                                 |
\*---------------------------------------------------------------------------*/
FoamFile
{
    version     2.0;
    format      ascii;
    class       volScalarField;
    location    "5";
    object      XCO2;
}
// * * * * * * * * * * * * * * * * * * * * * * * * * * * * * * * * * * * * * //

dimensions      [0 0 0 0 0 0 0];

internalField   nonuniform List<scalar> 
100
(
0
0.00305308
0
0.00343936
0.000217188
0.00299659
0
0.00698639
0.00074753
0.00395365
0.0127428
0.00160676
0.00721227
0.0112127
0.000832398
0.00941286
0.0138072
0.00171705
0.0148513
0.00416692
0.0224379
0.0001557
0.0254095
0.022877
0.00516721
0.0429532
0.0341195
0.00513857
0.0231485
0.0446116
0.0249065
0.0329172
0.0131003
0.0723118
0.0258048
0.0589164
0.0177153
0.0899529
0.0135073
0.0312261
0.0990715
0.0544521
0.0274248
0.0628013
0.0646472
0.00818582
0.0510835
0.00281063
0.0767655
0.0323118
0.0232492
0.0369228
0.00407555
0.013633
0.0593803
0.0124243
0.0237155
0.0744192
0.0544287
0.0805368
0.0779598
0.0149689
0.0763414
0.0488845
0.0665842
0.0703597
0
0.0999121
0.0212734
0.024985
0.0383006
0.0292136
0.0854735
0.0226371
0.0910522
0.00200499
0.0177381
0.0522415
0.0279763
0.0212384
0.0571633
0.0639897
0.0178893
0.0847749
0.0847647
0.129315
0.00999544
0.14205
0
0.0662404
0.0284369
0.0328215
0.0847652
0.0134927
0.0550244
0.0536584
0.0220956
0.125386
0.00141599
0.389104
)
;

boundaryField
{
    inlet
    {
        type            fixedValue;
        value           uniform 0;
    }
    outlet
    {
        type            zeroGradient;
    }
    yzfaces
    {
        type            empty;
    }
}


// ************************************************************************* //
