/*--------------------------------*- C++ -*----------------------------------*\
| =========                 |                                                 |
| \\      /  F ield         | foam-extend: Open Source CFD                    |
|  \\    /   O peration     | Version:     5.0                                |
|   \\  /    A nd           | Web:         http://www.foam-extend.org         |
|    \\/     M anipulation  |                                                 |
\*---------------------------------------------------------------------------*/
FoamFile
{
    version     2.0;
    format      ascii;
    class       volScalarField;
    location    "8";
    object      alpha.gas;
}
// * * * * * * * * * * * * * * * * * * * * * * * * * * * * * * * * * * * * * //

dimensions      [0 0 0 0 0 0 0];

internalField   nonuniform List<scalar> 
100
(
0.142151
0.125489
0.115231
0.107642
0.101687
0.0970122
0.0935588
0.0906712
0.0878795
0.085319
0.0829723
0.0810469
0.0789767
0.0772106
0.0756034
0.0740343
0.0727262
0.0713665
0.0702075
0.0689845
0.0678185
0.0667093
0.0657227
0.0647803
0.0639101
0.0629993
0.0622895
0.0614962
0.0608058
0.0602023
0.0595249
0.058907
0.0582227
0.0577713
0.0571938
0.0566069
0.055881
0.0553025
0.0547754
0.0542406
0.0537196
0.0532012
0.0527522
0.0523984
0.0520276
0.05173
0.0512846
0.0509664
0.0505681
0.0502423
0.0498059
0.0493773
0.0489892
0.0485991
0.0481938
0.0478618
0.0474899
0.0471548
0.0468002
0.0465148
0.046196
0.0459214
0.0456458
0.0453579
0.0450365
0.0447468
0.0444568
0.0441765
0.0438905
0.0436313
0.0433182
0.0430766
0.0428435
0.0426236
0.0423782
0.0421063
0.0418736
0.0416784
0.0414347
0.0411822
0.0409904
0.0407527
0.0405448
0.040342
0.0401125
0.039883
0.0396222
0.0393907
0.0391678
0.0389447
0.0387452
0.0385562
0.0383498
0.038132
0.0379634
0.0377354
0.0375276
0.0373379
0.0371382
0.0369146
)
;

boundaryField
{
    inlet
    {
        type            fixedValue;
        value           uniform 0.2;
    }
    outlet
    {
        type            zeroGradient;
    }
    yzfaces
    {
        type            empty;
    }
}


// ************************************************************************* //
