/*--------------------------------*- C++ -*----------------------------------*\
| =========                 |                                                 |
| \\      /  F ield         | foam-extend: Open Source CFD                    |
|  \\    /   O peration     | Version:     5.0                                |
|   \\  /    A nd           | Web:         http://www.foam-extend.org         |
|    \\/     M anipulation  |                                                 |
\*---------------------------------------------------------------------------*/
FoamFile
{
    version     2.0;
    format      ascii;
    class       volScalarField;
    location    "8";
    object      CO2.gas;
}
// * * * * * * * * * * * * * * * * * * * * * * * * * * * * * * * * * * * * * //

dimensions      [0 0 0 0 0 0 0];

internalField   nonuniform List<scalar> 
100
(
0.142485
0.125039
0.114913
0.107135
0.101065
0.096498
0.0934291
0.0908965
0.0881498
0.0855655
0.0830995
0.0812667
0.0790934
0.0772835
0.0756565
0.0739881
0.072754
0.0713326
0.0702338
0.068925
0.0677781
0.0666129
0.065621
0.0646592
0.0638069
0.0628801
0.0622324
0.0614252
0.0607393
0.0601917
0.0595
0.0588816
0.0581553
0.0578
0.057201
0.0565778
0.0557699
0.0552216
0.0547015
0.0541935
0.0536784
0.0531448
0.0527265
0.0523934
0.0520276
0.051761
0.0512638
0.0509764
0.050581
0.050272
0.0498026
0.049359
0.0489807
0.0485724
0.0481522
0.0478487
0.0474545
0.0471475
0.0467969
0.0465391
0.0461947
0.0459306
0.045654
0.0453414
0.0450083
0.0447241
0.0444343
0.044151
0.0438597
0.0436188
0.0433038
0.0430748
0.0428601
0.0426231
0.0423627
0.0420904
0.0418668
0.0416799
0.0414174
0.0411669
0.0409779
0.0407379
0.0405368
0.0403365
0.0401004
0.0398689
0.0395995
0.039364
0.0391509
0.0389336
0.038733
0.0385481
0.0383409
0.0381116
0.0379561
0.0377136
0.0375094
0.0373303
0.0371301
0.036892
)
;

boundaryField
{
    inlet
    {
        type            fixedValue;
        value           uniform 0.2;
    }
    outlet
    {
        type            zeroGradient;
    }
    yzfaces
    {
        type            empty;
    }
}


// ************************************************************************* //
