/*--------------------------------*- C++ -*----------------------------------*\
| =========                 |                                                 |
| \\      /  F ield         | foam-extend: Open Source CFD                    |
|  \\    /   O peration     | Version:     5.0                                |
|   \\  /    A nd           | Web:         http://www.foam-extend.org         |
|    \\/     M anipulation  |                                                 |
\*---------------------------------------------------------------------------*/
FoamFile
{
    version     2.0;
    format      ascii;
    class       volVectorField;
    location    "8";
    object      U.water;
}
// * * * * * * * * * * * * * * * * * * * * * * * * * * * * * * * * * * * * * //

dimensions      [0 1 -1 0 0 0 0];

internalField   nonuniform List<vector> 
100
(
(2.50531e-05 0 0)
(6.07416e-05 0 0)
(9.17908e-05 0 0)
(0.000120391 0 0)
(0.000147658 0 0)
(0.000173483 0 0)
(0.000197536 0 0)
(0.000218833 0 0)
(0.000239028 0 0)
(0.000259588 0 0)
(0.000280345 0 0)
(0.00030058 0 0)
(0.000319996 0 0)
(0.000339771 0 0)
(0.000359453 0 0)
(0.000379685 0 0)
(0.000398215 0 0)
(0.000416301 0 0)
(0.000435403 0 0)
(0.00045349 0 0)
(0.000471993 0 0)
(0.00049157 0 0)
(0.000510589 0 0)
(0.000527779 0 0)
(0.000544972 0 0)
(0.000561853 0 0)
(0.000578302 0 0)
(0.000593831 0 0)
(0.000610348 0 0)
(0.000625386 0 0)
(0.000640312 0 0)
(0.000656381 0 0)
(0.000671613 0 0)
(0.000685572 0 0)
(0.000698485 0 0)
(0.000714075 0 0)
(0.000731225 0 0)
(0.00074968 0 0)
(0.000766891 0 0)
(0.000782664 0 0)
(0.000798646 0 0)
(0.000815251 0 0)
(0.000830882 0 0)
(0.00084405 0 0)
(0.000854879 0 0)
(0.000865316 0 0)
(0.000878793 0 0)
(0.000893254 0 0)
(0.000906008 0 0)
(0.000919455 0 0)
(0.000932263 0 0)
(0.000948206 0 0)
(0.000963714 0 0)
(0.000979456 0 0)
(0.000996469 0 0)
(0.00101277 0 0)
(0.00102751 0 0)
(0.00104209 0 0)
(0.00105675 0 0)
(0.00107085 0 0)
(0.00108339 0 0)
(0.00109487 0 0)
(0.00110503 0 0)
(0.00111742 0 0)
(0.00113304 0 0)
(0.00114876 0 0)
(0.00116258 0 0)
(0.0011761 0 0)
(0.00119006 0 0)
(0.0012042 0 0)
(0.00121904 0 0)
(0.00123383 0 0)
(0.00124656 0 0)
(0.00125888 0 0)
(0.00127086 0 0)
(0.00128468 0 0)
(0.00129894 0 0)
(0.0013111 0 0)
(0.00132351 0 0)
(0.00133724 0 0)
(0.00134944 0 0)
(0.00136149 0 0)
(0.00137515 0 0)
(0.00138685 0 0)
(0.00139906 0 0)
(0.00141284 0 0)
(0.00142687 0 0)
(0.00144157 0 0)
(0.00145588 0 0)
(0.00147122 0 0)
(0.00148587 0 0)
(0.00149868 0 0)
(0.0015118 0 0)
(0.00152503 0 0)
(0.00153696 0 0)
(0.00155094 0 0)
(0.00156774 0 0)
(0.00158143 0 0)
(0.00159416 0 0)
(0.00160877 0 0)
)
;

boundaryField
{
    inlet
    {
        type            fixedValue;
        value           uniform (0 0 0);
    }
    outlet
    {
        type            zeroGradient;
    }
    yzfaces
    {
        type            empty;
    }
}


// ************************************************************************* //
