/*--------------------------------*- C++ -*----------------------------------*\
| =========                 |                                                 |
| \\      /  F ield         | foam-extend: Open Source CFD                    |
|  \\    /   O peration     | Version:     5.0                                |
|   \\  /    A nd           | Web:         http://www.foam-extend.org         |
|    \\/     M anipulation  |                                                 |
\*---------------------------------------------------------------------------*/
FoamFile
{
    version     2.0;
    format      ascii;
    class       volVectorField;
    location    "8";
    object      U.gas;
}
// * * * * * * * * * * * * * * * * * * * * * * * * * * * * * * * * * * * * * //

dimensions      [0 1 -1 0 0 0 0];

internalField   nonuniform List<vector> 
100
(
(7.20736e-05 0 0)
(0.000161292 0 0)
(0.000244439 0 0)
(0.000324988 0 0)
(0.000404546 0 0)
(0.000482722 0 0)
(0.000559726 0 0)
(0.000636503 0 0)
(0.000713987 0 0)
(0.00079191 0 0)
(0.000868817 0 0)
(0.000945117 0 0)
(0.00102296 0 0)
(0.00110105 0 0)
(0.00117681 0 0)
(0.0012556 0 0)
(0.00133447 0 0)
(0.00141582 0 0)
(0.00149454 0 0)
(0.00157688 0 0)
(0.00165779 0 0)
(0.00174218 0 0)
(0.00182709 0 0)
(0.00191527 0 0)
(0.00200679 0 0)
(0.00209837 0 0)
(0.00219407 0 0)
(0.00229746 0 0)
(0.00240316 0 0)
(0.00252076 0 0)
(0.00265048 0 0)
(0.0027976 0 0)
(0.00296832 0 0)
(0.00317921 0 0)
(0.00345552 0 0)
(0.00384835 0 0)
(0.00447576 0 0)
(0.00552869 0 0)
(0.00655317 0 0)
(0.00616541 0 0)
(0.00572034 0 0)
(0.00552166 0 0)
(0.00540026 0 0)
(0.00526721 0 0)
(0.00526312 0 0)
(0.00527912 0 0)
(0.00524454 0 0)
(0.00527767 0 0)
(0.00528222 0 0)
(0.00528646 0 0)
(0.00525887 0 0)
(0.00522682 0 0)
(0.00524557 0 0)
(0.00524026 0 0)
(0.00523957 0 0)
(0.0052699 0 0)
(0.00525365 0 0)
(0.00520486 0 0)
(0.0051566 0 0)
(0.00515677 0 0)
(0.00520561 0 0)
(0.00526867 0 0)
(0.00530036 0 0)
(0.00530238 0 0)
(0.00533075 0 0)
(0.00528198 0 0)
(0.00526869 0 0)
(0.00529837 0 0)
(0.00524874 0 0)
(0.00519879 0 0)
(0.00518409 0 0)
(0.00516814 0 0)
(0.00513744 0 0)
(0.0051541 0 0)
(0.00520128 0 0)
(0.00519762 0 0)
(0.00527964 0 0)
(0.00537321 0 0)
(0.00537547 0 0)
(0.00536056 0 0)
(0.00534462 0 0)
(0.00536049 0 0)
(0.00532395 0 0)
(0.00527927 0 0)
(0.00531357 0 0)
(0.00531143 0 0)
(0.00531383 0 0)
(0.00536408 0 0)
(0.00538015 0 0)
(0.0052999 0 0)
(0.00520471 0 0)
(0.00523755 0 0)
(0.00525183 0 0)
(0.00520301 0 0)
(0.00528819 0 0)
(0.00531896 0 0)
(0.00529062 0 0)
(0.00529232 0 0)
(0.00531196 0 0)
(0.00531585 0 0)
)
;

boundaryField
{
    inlet
    {
        type            fixedValue;
        value           uniform (0 0 0);
    }
    outlet
    {
        type            zeroGradient;
    }
    yzfaces
    {
        type            empty;
    }
}


// ************************************************************************* //
