/*--------------------------------*- C++ -*----------------------------------*\
| =========                 |                                                 |
| \\      /  F ield         | foam-extend: Open Source CFD                    |
|  \\    /   O peration     | Version:     5.0                                |
|   \\  /    A nd           | Web:         http://www.foam-extend.org         |
|    \\/     M anipulation  |                                                 |
\*---------------------------------------------------------------------------*/
FoamFile
{
    version     2.0;
    format      ascii;
    class       volScalarField;
    location    "8";
    object      XCO2;
}
// * * * * * * * * * * * * * * * * * * * * * * * * * * * * * * * * * * * * * //

dimensions      [0 0 0 0 0 0 0];

internalField   nonuniform List<scalar> 
100
(
-0.00352963
0.0048145
-0.00505943
0.00713831
-0.00682139
0.0081111
-0.00655315
0.00520926
-0.00305628
-0.000128017
0.0014296
-0.00410217
0.00369502
-0.00455482
0.00321281
-0.00309925
0.00323764
-0.00444329
0.00636023
-0.00748417
0.00884579
-0.00824138
0.00825148
-0.00757799
0.00658142
-0.00613996
0.00607345
-0.0044792
0.00571378
-0.0029181
-0.00203556
-0.00390911
-0.00634126
-0.00291069
0.0096676
0.0173046
0.0541872
0.0748582
0.134253
0.179497
0.232965
0.31406
0.344411
0.456131
0.418473
0.500252
0.47979
0.518883
0.488903
0.482834
0.478276
0.589438
0.456138
0.472844
0.521937
0.470947
0.488687
0.472243
0.437323
0.51107
0.465832
0.534412
0.490779
0.455369
0.508429
0.519459
0.521928
0.43657
0.566384
0.495176
0.530232
0.439512
0.567253
0.472604
0.441192
0.553958
0.487913
0.532362
0.513979
0.559737
0.467547
0.494117
0.494199
0.485893
0.451008
0.519031
0.528124
0.440993
0.589473
0.465198
0.53573
0.490609
0.450483
0.544372
0.510638
0.508262
0.525465
0.490791
0.621178
0.211381
)
;

boundaryField
{
    inlet
    {
        type            fixedValue;
        value           uniform 0;
    }
    outlet
    {
        type            zeroGradient;
    }
    yzfaces
    {
        type            empty;
    }
}


// ************************************************************************* //
