/*--------------------------------*- C++ -*----------------------------------*\
| =========                 |                                                 |
| \\      /  F ield         | foam-extend: Open Source CFD                    |
|  \\    /   O peration     | Version:     5.0                                |
|   \\  /    A nd           | Web:         http://www.foam-extend.org         |
|    \\/     M anipulation  |                                                 |
\*---------------------------------------------------------------------------*/
FoamFile
{
    version     2.0;
    format      ascii;
    class       volScalarField;
    location    "9";
    object      S.gas;
}
// * * * * * * * * * * * * * * * * * * * * * * * * * * * * * * * * * * * * * //

dimensions      [0 0 0 0 0 0 0];

internalField   nonuniform List<scalar> 
100
(
0.00044448
0.000718776
0.000974455
0.00122235
0.00146532
0.00170419
0.00194041
0.00217581
0.00241109
0.0026463
0.00288059
0.00311411
0.00334813
0.00358218
0.00381717
0.00405236
0.0042879
0.00452396
0.00476341
0.00500316
0.00524456
0.00549023
0.00573598
0.00598677
0.00624118
0.00649928
0.00676706
0.00703499
0.00731737
0.00760823
0.00790433
0.00822297
0.00856459
0.00892638
0.00933072
0.00979546
0.0103262
0.0109846
0.0118246
0.0130211
0.0148329
0.0181148
0.0256559
0.0479804
0.117673
0.244588
0.38471
0.514001
0.625038
0.717967
0.791235
0.849085
0.889215
0.914915
0.932107
0.940541
0.944918
0.947246
0.949035
0.949222
0.949588
0.949955
0.950257
0.949597
0.949938
0.949968
0.950059
0.950023
0.949846
0.949977
0.950347
0.949956
0.949992
0.950446
0.950709
0.950409
0.950531
0.950766
0.950856
0.950352
0.949938
0.949761
0.94996
0.950427
0.949859
0.949617
0.949583
0.949694
0.949795
0.94971
0.949243
0.948956
0.949284
0.948867
0.9492
0.948727
0.948622
0.94841
0.947536
0.94776
)
;

boundaryField
{
    inlet
    {
        type            calculated;
        value           uniform 0;
    }
    outlet
    {
        type            calculated;
        value           uniform 0.94776;
    }
    yzfaces
    {
        type            empty;
    }
}


// ************************************************************************* //
