/*--------------------------------*- C++ -*----------------------------------*\
| =========                 |                                                 |
| \\      /  F ield         | foam-extend: Open Source CFD                    |
|  \\    /   O peration     | Version:     5.0                                |
|   \\  /    A nd           | Web:         http://www.foam-extend.org         |
|    \\/     M anipulation  |                                                 |
\*---------------------------------------------------------------------------*/
FoamFile
{
    version     2.0;
    format      ascii;
    class       volVectorField;
    location    "9";
    object      U.gas;
}
// * * * * * * * * * * * * * * * * * * * * * * * * * * * * * * * * * * * * * //

dimensions      [0 1 -1 0 0 0 0];

internalField   nonuniform List<vector> 
100
(
(6.31521e-05 0 0)
(0.000141089 0 0)
(0.000213879 0 0)
(0.000284311 0 0)
(0.000353258 0 0)
(0.000422064 0 0)
(0.000489433 0 0)
(0.00055617 0 0)
(0.00062272 0 0)
(0.000689494 0 0)
(0.000757053 0 0)
(0.000823736 0 0)
(0.000890335 0 0)
(0.000957596 0 0)
(0.00102465 0 0)
(0.00109208 0 0)
(0.00115954 0 0)
(0.00122746 0 0)
(0.00129593 0 0)
(0.00136441 0 0)
(0.00143396 0 0)
(0.00150257 0 0)
(0.00157288 0 0)
(0.00164468 0 0)
(0.00171521 0 0)
(0.00178768 0 0)
(0.00186065 0 0)
(0.0019403 0 0)
(0.00202052 0 0)
(0.00209781 0 0)
(0.00218374 0 0)
(0.00227431 0 0)
(0.00236246 0 0)
(0.00245895 0 0)
(0.00256761 0 0)
(0.0026827 0 0)
(0.0028156 0 0)
(0.00296511 0 0)
(0.00316074 0 0)
(0.00340485 0 0)
(0.0037402 0 0)
(0.00426299 0 0)
(0.00519775 0 0)
(0.00643201 0 0)
(0.00634524 0 0)
(0.00582745 0 0)
(0.00557679 0 0)
(0.00545679 0 0)
(0.00540573 0 0)
(0.00535272 0 0)
(0.00540375 0 0)
(0.00537737 0 0)
(0.00530224 0 0)
(0.00538194 0 0)
(0.00534939 0 0)
(0.00527042 0 0)
(0.00532453 0 0)
(0.0053267 0 0)
(0.00530372 0 0)
(0.00528838 0 0)
(0.00523738 0 0)
(0.00518761 0 0)
(0.00515531 0 0)
(0.00523696 0 0)
(0.00526592 0 0)
(0.00525017 0 0)
(0.00531378 0 0)
(0.00533096 0 0)
(0.00533007 0 0)
(0.00535938 0 0)
(0.0052949 0 0)
(0.00525017 0 0)
(0.00528248 0 0)
(0.00529616 0 0)
(0.00524561 0 0)
(0.0052303 0 0)
(0.00523031 0 0)
(0.0051667 0 0)
(0.00511797 0 0)
(0.0051365 0 0)
(0.00521775 0 0)
(0.00523169 0 0)
(0.00523026 0 0)
(0.00521463 0 0)
(0.00523457 0 0)
(0.00529894 0 0)
(0.0053482 0 0)
(0.00536459 0 0)
(0.00533227 0 0)
(0.00531573 0 0)
(0.00534988 0 0)
(0.0054321 0 0)
(0.00543089 0 0)
(0.0054167 0 0)
(0.00546214 0 0)
(0.00548064 0 0)
(0.00549734 0 0)
(0.00546794 0 0)
(0.0054718 0 0)
(0.00539311 0 0)
)
;

boundaryField
{
    inlet
    {
        type            fixedValue;
        value           uniform (0 0 0);
    }
    outlet
    {
        type            zeroGradient;
    }
    yzfaces
    {
        type            empty;
    }
}


// ************************************************************************* //
