/*--------------------------------*- C++ -*----------------------------------*\
| =========                 |                                                 |
| \\      /  F ield         | foam-extend: Open Source CFD                    |
|  \\    /   O peration     | Version:     5.0                                |
|   \\  /    A nd           | Web:         http://www.foam-extend.org         |
|    \\/     M anipulation  |                                                 |
\*---------------------------------------------------------------------------*/
FoamFile
{
    version     2.0;
    format      ascii;
    class       volScalarField;
    location    "9";
    object      XCO2;
}
// * * * * * * * * * * * * * * * * * * * * * * * * * * * * * * * * * * * * * //

dimensions      [0 0 0 0 0 0 0];

internalField   nonuniform List<scalar> 
100
(
0.000134044
0.000693939
0.00057863
0.000820863
0
0.00394807
0.00129138
0.00419961
0
0.00358201
0.000923858
0.0077574
0
0.00962648
0.00153903
0.00891794
0
0.0129174
0.000500884
0.0130849
0.00215675
0.0123661
0.00717334
0.00913333
0.00795175
0.00981384
0.00664036
0.012067
0.00860105
0.00920518
0.00506472
0.0197226
0.000859519
0.0204927
0.00942661
0.00995808
0.0195421
0.00320993
0.027672
0.00174377
0.0320312
0
0.0341965
0.0193649
0.0138901
0.0469087
0.0231001
0.0339707
0.034398
0.0418244
0.0601494
0.0602684
0.0524438
0.15362
0.04178
0.0133223
0.108019
0.0948859
0.0616116
0.0762611
0.0544953
0.0645629
0.0428135
0.123245
0.0652651
0.000247055
0.000185739
0.171937
0.0242941
0.0491728
0.00644862
0.115638
0.0271753
0.0768983
0.122454
0.0248981
0.0535527
0.0432213
0.0018901
0.0183265
0.183812
0.0364296
0.0378616
0.0129341
0.182111
0.0319198
0.0525094
0.121708
0.0145455
0.0380829
0.098838
0.0551502
0.0841329
0.0374996
0.0446579
0.0164798
0.120052
0.0114888
0.0607137
0.556459
)
;

boundaryField
{
    inlet
    {
        type            fixedValue;
        value           uniform 0;
    }
    outlet
    {
        type            zeroGradient;
    }
    yzfaces
    {
        type            empty;
    }
}


// ************************************************************************* //
