/*--------------------------------*- C++ -*----------------------------------*\
| =========                 |                                                 |
| \\      /  F ield         | foam-extend: Open Source CFD                    |
|  \\    /   O peration     | Version:     5.0                                |
|   \\  /    A nd           | Web:         http://www.foam-extend.org         |
|    \\/     M anipulation  |                                                 |
\*---------------------------------------------------------------------------*/
FoamFile
{
    version     2.0;
    format      ascii;
    class       volScalarField;
    location    "8";
    object      XCO2;
}
// * * * * * * * * * * * * * * * * * * * * * * * * * * * * * * * * * * * * * //

dimensions      [0 0 0 0 0 0 0];

internalField   nonuniform List<scalar> 
100
(
0.000696525
0.000465315
-0.000442226
0.0036189
-0.00367038
0.0118237
-0.00356605
0.00744011
-0.00636546
0.0157373
-0.00807629
0.0117008
-0.00190954
0.00931656
-0.00288487
0.0135032
0.000347351
0.00528905
0.00755788
0.00329904
0.00619168
0.00577626
0.00809662
0.00697303
0.00880969
0.00788691
0.0116616
0.00316898
0.0147211
0.00736981
0.00980354
0.0128954
0.00946247
0.020379
0.0108132
0.0402439
0.0646473
0.169468
0.308561
0.450115
0.58045
0.686072
0.784525
0.856929
0.915847
0.957229
0.983027
0.995638
0.999414
0.999949
0.999996
1
1
1
1
1
1
1
1
1
1
1
1
1
1
1
1
1
1
1
1
1
1
1
1
1
1
1
1
1
1
1
1
1
1
1
1
1
1
1
1
1
1
1
1
1
1
1
1
1
)
;

boundaryField
{
    inlet
    {
        type            calculated;
        value           uniform 0;
    }
    outlet
    {
        type            calculated;
        value           uniform 1;
    }
    yzfaces
    {
        type            empty;
    }
}


// ************************************************************************* //
