/*--------------------------------*- C++ -*----------------------------------*\
| =========                 |                                                 |
| \\      /  F ield         | foam-extend: Open Source CFD                    |
|  \\    /   O peration     | Version:     5.0                                |
|   \\  /    A nd           | Web:         http://www.foam-extend.org         |
|    \\/     M anipulation  |                                                 |
\*---------------------------------------------------------------------------*/
FoamFile
{
    version     2.0;
    format      ascii;
    class       volScalarField;
    location    "7";
    object      alpha.water;
}
// * * * * * * * * * * * * * * * * * * * * * * * * * * * * * * * * * * * * * //

dimensions      [0 0 0 0 0 0 0];

internalField   nonuniform List<scalar> 
100
(
0.199882
0.199808
0.19974
0.199674
0.199609
0.199545
0.199481
0.199418
0.199354
0.19929
0.199227
0.199163
0.199098
0.199033
0.198967
0.198901
0.198833
0.198763
0.198693
0.198619
0.198543
0.198464
0.198379
0.198287
0.198188
0.198074
0.197941
0.197778
0.197564
0.197253
0.196738
0.195695
0.192875
0.184032
0.162665
0.13486
0.108045
0.0844451
0.0639762
0.0476767
0.0347128
0.0253121
0.0185457
0.0145052
0.0124511
0.0111029
0.0105471
0.0101014
0.0101564
0.00995263
0.0100024
0.00988063
0.0100379
0.0101294
0.0100803
0.0101538
0.0101526
0.0101187
0.0101483
0.0101705
0.010135
0.0101491
0.0101238
0.00996405
0.0100046
0.00997075
0.00994614
0.00993757
0.00993534
0.0100165
0.00998019
0.0100025
0.00994573
0.00997376
0.0100891
0.00986873
0.00982139
0.00984498
0.00987353
0.00996644
0.00998076
0.00999632
0.0100251
0.00998373
0.010089
0.0098825
0.00987584
0.00994098
0.0100172
0.01015
0.0101196
0.0101982
0.0101466
0.0101696
0.0101095
0.0101273
0.0103031
0.0101768
0.0103604
0.0104735
)
;

boundaryField
{
    inlet
    {
        type            fixedValue;
        value           uniform 0.2;
    }
    outlet
    {
        type            zeroGradient;
    }
    yzfaces
    {
        type            empty;
    }
}


// ************************************************************************* //
