/*--------------------------------*- C++ -*----------------------------------*\
| =========                 |                                                 |
| \\      /  F ield         | foam-extend: Open Source CFD                    |
|  \\    /   O peration     | Version:     5.0                                |
|   \\  /    A nd           | Web:         http://www.foam-extend.org         |
|    \\/     M anipulation  |                                                 |
\*---------------------------------------------------------------------------*/
FoamFile
{
    version     2.0;
    format      ascii;
    class       volScalarField;
    location    "7";
    object      alpha.gas;
}
// * * * * * * * * * * * * * * * * * * * * * * * * * * * * * * * * * * * * * //

dimensions      [0 0 0 0 0 0 0];

internalField   nonuniform List<scalar> 
100
(
0.000109221
0.000177118
0.000240201
0.000299613
0.000359107
0.00041907
0.000477009
0.000535766
0.000593319
0.000651348
0.000708995
0.000767174
0.000825174
0.000884645
0.000943096
0.00100078
0.00105903
0.00111744
0.00117871
0.00124012
0.0013032
0.00136865
0.00143651
0.00150641
0.00158081
0.00165709
0.00173794
0.00182731
0.00192717
0.00204412
0.00218952
0.00238222
0.00266378
0.00312218
0.00400927
0.00662022
0.0239683
0.144896
0.189849
0.190023
0.190026
0.189911
0.189984
0.189956
0.190004
0.189961
0.190025
0.189959
0.189983
0.18998
0.190005
0.190009
0.19001
0.189984
0.189961
0.189987
0.190004
0.189932
0.189984
0.190055
0.190003
0.190006
0.189956
0.189983
0.189959
0.190004
0.190074
0.189961
0.189978
0.190032
0.189979
0.190092
0.190074
0.190002
0.190032
0.19001
0.189958
0.189982
0.189984
0.190007
0.190048
0.189985
0.190027
0.190028
0.190055
0.190022
0.190004
0.189958
0.190007
0.190028
0.189983
0.19003
0.189961
0.189911
0.189983
0.189978
0.189935
0.189983
0.190099
0.189767
)
;

boundaryField
{
    inlet
    {
        type            fixedValue;
        value           uniform 0;
    }
    outlet
    {
        type            zeroGradient;
    }
    yzfaces
    {
        type            empty;
    }
}


// ************************************************************************* //
