/*--------------------------------*- C++ -*----------------------------------*\
| =========                 |                                                 |
| \\      /  F ield         | foam-extend: Open Source CFD                    |
|  \\    /   O peration     | Version:     5.0                                |
|   \\  /    A nd           | Web:         http://www.foam-extend.org         |
|    \\/     M anipulation  |                                                 |
\*---------------------------------------------------------------------------*/
FoamFile
{
    version     2.0;
    format      ascii;
    class       volScalarField;
    location    "7";
    object      alpha.water;
}
// * * * * * * * * * * * * * * * * * * * * * * * * * * * * * * * * * * * * * //

dimensions      [0 0 0 0 0 0 0];

internalField   nonuniform List<scalar> 
100
(
0.199891
0.199823
0.19976
0.1997
0.199641
0.199581
0.199523
0.199464
0.199407
0.199349
0.199291
0.199233
0.199175
0.199115
0.199057
0.198999
0.198941
0.198883
0.198821
0.19876
0.198697
0.198631
0.198563
0.198494
0.198419
0.198343
0.198262
0.198173
0.198073
0.197956
0.19781
0.197618
0.197336
0.196878
0.195991
0.19338
0.176032
0.0551041
0.0101512
0.00997713
0.00997381
0.010089
0.0100155
0.0100437
0.00999586
0.0100391
0.00997543
0.0100407
0.0100172
0.0100199
0.00999533
0.00999136
0.00999042
0.010016
0.0100386
0.0100135
0.00999623
0.0100678
0.0100161
0.00994535
0.0099972
0.00999405
0.0100444
0.0100175
0.0100413
0.00999622
0.0099264
0.0100388
0.0100223
0.00996808
0.0100208
0.00990774
0.00992608
0.00999831
0.0099681
0.00999046
0.010042
0.0100182
0.0100157
0.00999271
0.00995172
0.010015
0.00997326
0.00997227
0.00994536
0.00997764
0.00999627
0.0100417
0.00999302
0.00997183
0.010017
0.0099699
0.0100386
0.0100886
0.010017
0.010022
0.0100651
0.0100169
0.0099012
0.0102327
)
;

boundaryField
{
    inlet
    {
        type            fixedValue;
        value           uniform 0.2;
    }
    outlet
    {
        type            zeroGradient;
    }
    yzfaces
    {
        type            empty;
    }
}


// ************************************************************************* //
