/*--------------------------------*- C++ -*----------------------------------*\
| =========                 |                                                 |
| \\      /  F ield         | foam-extend: Open Source CFD                    |
|  \\    /   O peration     | Version:     5.0                                |
|   \\  /    A nd           | Web:         http://www.foam-extend.org         |
|    \\/     M anipulation  |                                                 |
\*---------------------------------------------------------------------------*/
FoamFile
{
    version     2.0;
    format      ascii;
    class       volScalarField;
    location    "7";
    object      CO2.water;
}
// * * * * * * * * * * * * * * * * * * * * * * * * * * * * * * * * * * * * * //

dimensions      [0 0 0 0 0 0 0];

internalField   nonuniform List<scalar> 
100
(
3.42512e-15
9.19681e-14
1.25266e-12
1.15403e-11
8.06013e-11
4.55891e-10
2.18008e-09
9.03783e-09
3.32188e-08
1.09834e-07
3.30889e-07
9.17151e-07
2.35875e-06
5.66687e-06
1.28034e-05
2.73327e-05
5.53362e-05
0.000106758
0.00019686
0.000347999
0.000591829
0.000969923
0.00153593
0.00235607
0.0035033
0.0050679
0.00713657
0.00979028
0.0131203
0.017187
0.0220346
0.0276781
0.0341116
0.0412585
0.0490358
0.056982
0.0607374
0.0256966
0.0100948
0.0100013
0.00999835
0.0100009
0.00999949
0.0100016
0.00999924
0.00999816
0.00999987
0.00999995
0.0100013
0.00999884
0.0100015
0.00999842
0.00999914
0.00999985
0.0100001
0.00999976
0.00999996
0.0099997
0.009999
0.0100002
0.0100005
0.00999998
0.00999999
0.00999909
0.00999933
0.00999987
0.00999956
0.0100004
0.0100002
0.00999984
0.0100012
0.0100001
0.0100001
0.00999948
0.00999971
0.0100001
0.0100011
0.00999954
0.0100009
0.0099989
0.0100015
0.00999908
0.0100011
0.00999928
0.00999923
0.0100011
0.00999988
0.0100006
0.00999907
0.010001
0.00999948
0.0100003
0.00999915
0.0100008
0.00999989
0.00999975
0.00999956
0.0099998
0.0100006
0.00999703
)
;

boundaryField
{
    inlet
    {
        type            fixedValue;
        value           uniform 0;
    }
    outlet
    {
        type            zeroGradient;
    }
    yzfaces
    {
        type            empty;
    }
}


// ************************************************************************* //
