/*--------------------------------*- C++ -*----------------------------------*\
| =========                 |                                                 |
| \\      /  F ield         | foam-extend: Open Source CFD                    |
|  \\    /   O peration     | Version:     5.0                                |
|   \\  /    A nd           | Web:         http://www.foam-extend.org         |
|    \\/     M anipulation  |                                                 |
\*---------------------------------------------------------------------------*/
FoamFile
{
    version     2.0;
    format      ascii;
    class       surfaceScalarField;
    location    "7";
    object      phi;
}
// * * * * * * * * * * * * * * * * * * * * * * * * * * * * * * * * * * * * * //

dimensions      [0 3 -1 0 0 0 0];

internalField   nonuniform List<scalar> 
99
(
1.22475e-06
1.22537e-06
1.22479e-06
1.22465e-06
1.2246e-06
1.22428e-06
1.22484e-06
1.22479e-06
1.22486e-06
1.22459e-06
1.22421e-06
1.22415e-06
1.22463e-06
1.22437e-06
1.22407e-06
1.22426e-06
1.22467e-06
1.22555e-06
1.22467e-06
1.22555e-06
1.22408e-06
1.22398e-06
1.22404e-06
1.22313e-06
1.22275e-06
1.22266e-06
1.22253e-06
1.22271e-06
1.22297e-06
1.22283e-06
1.22285e-06
1.22278e-06
1.22151e-06
1.22187e-06
1.22152e-06
1.22149e-06
1.2216e-06
1.25841e-06
1.21454e-06
1.21568e-06
1.21512e-06
1.25054e-06
1.24402e-06
1.25088e-06
1.23717e-06
1.27327e-06
1.24548e-06
1.27322e-06
1.28871e-06
1.28874e-06
1.30392e-06
1.31113e-06
1.30332e-06
1.31107e-06
1.32513e-06
1.33285e-06
1.31937e-06
1.35519e-06
1.34174e-06
1.31912e-06
1.33373e-06
1.31857e-06
1.33399e-06
1.31937e-06
1.34888e-06
1.33403e-06
1.31255e-06
1.34e-06
1.3343e-06
1.32686e-06
1.33341e-06
1.2831e-06
1.27477e-06
1.27468e-06
1.25176e-06
1.27326e-06
1.28844e-06
1.27383e-06
1.29561e-06
1.29644e-06
1.28958e-06
1.33369e-06
1.31166e-06
1.31199e-06
1.32656e-06
1.30535e-06
1.31972e-06
1.33285e-06
1.33371e-06
1.31196e-06
1.31798e-06
1.28874e-06
1.31076e-06
1.33278e-06
1.32599e-06
1.32687e-06
1.33369e-06
1.31105e-06
1.26819e-06
)
;

boundaryField
{
    inlet
    {
        type            calculated;
        value           uniform -1.225e-06;
    }
    outlet
    {
        type            calculated;
        value           uniform 1.33928e-06;
    }
    yzfaces
    {
        type            empty;
    }
}


// ************************************************************************* //
