/*--------------------------------*- C++ -*----------------------------------*\
| =========                 |                                                 |
| \\      /  F ield         | foam-extend: Open Source CFD                    |
|  \\    /   O peration     | Version:     5.0                                |
|   \\  /    A nd           | Web:         http://www.foam-extend.org         |
|    \\/     M anipulation  |                                                 |
\*---------------------------------------------------------------------------*/
FoamFile
{
    version     2.0;
    format      ascii;
    class       volScalarField;
    location    "7";
    object      S.gas;
}
// * * * * * * * * * * * * * * * * * * * * * * * * * * * * * * * * * * * * * //

dimensions      [0 0 0 0 0 0 0];

internalField   nonuniform List<scalar> 
100
(
0.000546105
0.000885589
0.00120101
0.00149806
0.00179554
0.00209535
0.00238505
0.00267883
0.0029666
0.00325674
0.00354497
0.00383587
0.00412587
0.00442323
0.00471548
0.00500391
0.00529516
0.00558719
0.00589355
0.00620059
0.006516
0.00684323
0.00718254
0.00753205
0.00790406
0.00828546
0.00868969
0.00913654
0.00963583
0.0102206
0.0109476
0.0119111
0.0133189
0.0156109
0.0200464
0.0331011
0.119842
0.72448
0.949244
0.950114
0.950131
0.949555
0.949922
0.949782
0.950021
0.949805
0.950123
0.949797
0.949914
0.9499
0.950023
0.950043
0.950048
0.94992
0.949807
0.949933
0.950019
0.949661
0.949919
0.950273
0.950014
0.95003
0.949778
0.949913
0.949793
0.950019
0.950368
0.949806
0.949889
0.95016
0.949896
0.950461
0.95037
0.950008
0.950159
0.950048
0.94979
0.949909
0.949921
0.950036
0.950241
0.949925
0.950134
0.950139
0.950273
0.950112
0.950019
0.949792
0.950035
0.950141
0.949915
0.950151
0.949807
0.949557
0.949915
0.94989
0.949674
0.949915
0.950494
0.948837
)
;

boundaryField
{
    inlet
    {
        type            calculated;
        value           uniform 0;
    }
    outlet
    {
        type            calculated;
        value           uniform 0.948837;
    }
    yzfaces
    {
        type            empty;
    }
}


// ************************************************************************* //
