/*--------------------------------*- C++ -*----------------------------------*\
| =========                 |                                                 |
| \\      /  F ield         | foam-extend: Open Source CFD                    |
|  \\    /   O peration     | Version:     5.0                                |
|   \\  /    A nd           | Web:         http://www.foam-extend.org         |
|    \\/     M anipulation  |                                                 |
\*---------------------------------------------------------------------------*/
FoamFile
{
    version     2.0;
    format      ascii;
    class       volScalarField;
    location    "7";
    object      S.water;
}
// * * * * * * * * * * * * * * * * * * * * * * * * * * * * * * * * * * * * * //

dimensions      [0 0 0 0 0 0 0];

internalField   nonuniform List<scalar> 
100
(
0.999454
0.999114
0.998799
0.998502
0.998204
0.997905
0.997615
0.997321
0.997033
0.996743
0.996455
0.996164
0.995874
0.995577
0.995285
0.994996
0.994705
0.994413
0.994106
0.993799
0.993484
0.993157
0.992817
0.992468
0.992096
0.991715
0.99131
0.990863
0.990364
0.989779
0.989052
0.988089
0.986681
0.984389
0.979954
0.966899
0.880158
0.27552
0.0507558
0.0498856
0.0498691
0.0504448
0.0500777
0.0502184
0.0499793
0.0501954
0.0498771
0.0502034
0.0500861
0.0500996
0.0499766
0.0499568
0.0499521
0.0500801
0.0501932
0.0500674
0.0499811
0.050339
0.0500806
0.0497268
0.049986
0.0499702
0.050222
0.0500875
0.0502066
0.0499811
0.049632
0.0501941
0.0501113
0.0498404
0.0501041
0.0495387
0.0496304
0.0499915
0.0498405
0.0499523
0.05021
0.0500911
0.0500786
0.0499635
0.0497586
0.0500748
0.0498663
0.0498613
0.0497268
0.0498882
0.0499813
0.0502083
0.0499651
0.0498591
0.0500848
0.0498495
0.0501929
0.0504428
0.0500848
0.05011
0.0503256
0.0500846
0.049506
0.0511633
)
;

boundaryField
{
    inlet
    {
        type            calculated;
        value           uniform 1;
    }
    outlet
    {
        type            calculated;
        value           uniform 0.0511633;
    }
    yzfaces
    {
        type            empty;
    }
}


// ************************************************************************* //
