/*--------------------------------*- C++ -*----------------------------------*\
| =========                 |                                                 |
| \\      /  F ield         | foam-extend: Open Source CFD                    |
|  \\    /   O peration     | Version:     5.0                                |
|   \\  /    A nd           | Web:         http://www.foam-extend.org         |
|    \\/     M anipulation  |                                                 |
\*---------------------------------------------------------------------------*/
FoamFile
{
    version     2.0;
    format      ascii;
    class       volVectorField;
    location    "7";
    object      U.gas;
}
// * * * * * * * * * * * * * * * * * * * * * * * * * * * * * * * * * * * * * //

dimensions      [0 1 -1 0 0 0 0];

internalField   nonuniform List<vector> 
100
(
(7.76395e-05 0 0)
(0.000173962 0 0)
(0.000263965 0 0)
(0.000350352 0 0)
(0.000433899 0 0)
(0.000518061 0 0)
(0.000602711 0 0)
(0.000685203 0 0)
(0.000768756 0 0)
(0.000850662 0 0)
(0.00093355 0 0)
(0.00101606 0 0)
(0.00109968 0 0)
(0.00118338 0 0)
(0.00126852 0 0)
(0.0013527 0 0)
(0.00143605 0 0)
(0.0015208 0 0)
(0.0016044 0 0)
(0.00169284 0 0)
(0.00178111 0 0)
(0.00187092 0 0)
(0.00196614 0 0)
(0.00206311 0 0)
(0.00216469 0 0)
(0.00227315 0 0)
(0.00238244 0 0)
(0.00250023 0 0)
(0.00263082 0 0)
(0.00277612 0 0)
(0.00294748 0 0)
(0.00316386 0 0)
(0.00345212 0 0)
(0.00388797 0 0)
(0.00464121 0 0)
(0.00645208 0 0)
(0.0119752 0 0)
(0.00530196 0 0)
(0.00530976 0 0)
(0.00521977 0 0)
(0.00522092 0 0)
(0.00529901 0 0)
(0.00535905 0 0)
(0.00536058 0 0)
(0.00534452 0 0)
(0.00539385 0 0)
(0.00540989 0 0)
(0.00541163 0 0)
(0.00550384 0 0)
(0.00553728 0 0)
(0.00556922 0 0)
(0.00561719 0 0)
(0.00561589 0 0)
(0.00561651 0 0)
(0.00566403 0 0)
(0.00571007 0 0)
(0.00569719 0 0)
(0.00574734 0 0)
(0.00579382 0 0)
(0.00571421 0 0)
(0.00569858 0 0)
(0.00569729 0 0)
(0.00569935 0 0)
(0.00570027 0 0)
(0.00573297 0 0)
(0.00576309 0 0)
(0.00568297 0 0)
(0.00569917 0 0)
(0.00574541 0 0)
(0.00571556 0 0)
(0.00571522 0 0)
(0.00561785 0 0)
(0.00549248 0 0)
(0.00547649 0 0)
(0.00542619 0 0)
(0.00542377 0 0)
(0.00550406 0 0)
(0.0055046 0 0)
(0.00551993 0 0)
(0.00556781 0 0)
(0.00555366 0 0)
(0.00563555 0 0)
(0.00568175 0 0)
(0.0056351 0 0)
(0.0056663 0 0)
(0.005653 0 0)
(0.00563886 0 0)
(0.0056993 0 0)
(0.00572788 0 0)
(0.00568236 0 0)
(0.00564992 0 0)
(0.00559867 0 0)
(0.00558517 0 0)
(0.00568129 0 0)
(0.00571188 0 0)
(0.00569933 0 0)
(0.00571716 0 0)
(0.00568172 0 0)
(0.00553765 0 0)
(0.00560804 0 0)
)
;

boundaryField
{
    inlet
    {
        type            fixedValue;
        value           uniform (0 0 0);
    }
    outlet
    {
        type            zeroGradient;
    }
    yzfaces
    {
        type            empty;
    }
}


// ************************************************************************* //
