/*--------------------------------*- C++ -*----------------------------------*\
| =========                 |                                                 |
| \\      /  F ield         | foam-extend: Open Source CFD                    |
|  \\    /   O peration     | Version:     5.0                                |
|   \\  /    A nd           | Web:         http://www.foam-extend.org         |
|    \\/     M anipulation  |                                                 |
\*---------------------------------------------------------------------------*/
FoamFile
{
    version     2.0;
    format      ascii;
    class       volVectorField;
    location    "7";
    object      U.water;
}
// * * * * * * * * * * * * * * * * * * * * * * * * * * * * * * * * * * * * * //

dimensions      [0 1 -1 0 0 0 0];

internalField   nonuniform List<vector> 
100
(
(0.00500218 0 0)
(0.00500451 0 0)
(0.00500601 0 0)
(0.00500582 0 0)
(0.00500666 0 0)
(0.00500712 0 0)
(0.00500873 0 0)
(0.00501084 0 0)
(0.00501188 0 0)
(0.00501243 0 0)
(0.00501201 0 0)
(0.00501198 0 0)
(0.00501366 0 0)
(0.00501492 0 0)
(0.0050145 0 0)
(0.00501493 0 0)
(0.00501679 0 0)
(0.00502 0 0)
(0.00502057 0 0)
(0.00502107 0 0)
(0.00502033 0 0)
(0.00501756 0 0)
(0.00501787 0 0)
(0.00501648 0 0)
(0.00501412 0 0)
(0.00501333 0 0)
(0.00501303 0 0)
(0.00501324 0 0)
(0.00501416 0 0)
(0.00501432 0 0)
(0.00501381 0 0)
(0.00501309 0 0)
(0.00500908 0 0)
(0.00500392 0 0)
(0.00499357 0 0)
(0.00493554 0 0)
(0.00403426 0 0)
(0.00442831 0 0)
(0.000129726 0 0)
(4.97475e-06 0 0)
(4.87586e-06 0 0)
(4.85688e-06 0 0)
(4.92949e-06 0 0)
(4.9157e-06 0 0)
(4.97643e-06 0 0)
(5.01049e-06 0 0)
(5.06105e-06 0 0)
(5.02815e-06 0 0)
(5.09552e-06 0 0)
(5.11269e-06 0 0)
(5.14381e-06 0 0)
(5.18303e-06 0 0)
(5.16489e-06 0 0)
(5.15167e-06 0 0)
(5.19561e-06 0 0)
(5.24565e-06 0 0)
(5.27324e-06 0 0)
(5.29111e-06 0 0)
(5.37412e-06 0 0)
(5.35643e-06 0 0)
(5.2914e-06 0 0)
(5.29303e-06 0 0)
(5.28499e-06 0 0)
(5.31773e-06 0 0)
(5.3236e-06 0 0)
(5.36621e-06 0 0)
(5.32917e-06 0 0)
(5.23235e-06 0 0)
(5.29665e-06 0 0)
(5.32561e-06 0 0)
(5.27894e-06 0 0)
(5.24557e-06 0 0)
(5.10507e-06 0 0)
(5.06805e-06 0 0)
(5.04614e-06 0 0)
(5.01627e-06 0 0)
(5.06437e-06 0 0)
(5.09492e-06 0 0)
(5.11471e-06 0 0)
(5.16368e-06 0 0)
(5.16635e-06 0 0)
(5.20779e-06 0 0)
(5.28545e-06 0 0)
(5.24876e-06 0 0)
(5.2629e-06 0 0)
(5.26459e-06 0 0)
(5.29197e-06 0 0)
(5.2865e-06 0 0)
(5.31218e-06 0 0)
(5.28621e-06 0 0)
(5.2253e-06 0 0)
(5.17553e-06 0 0)
(5.14018e-06 0 0)
(5.22507e-06 0 0)
(5.28098e-06 0 0)
(5.27836e-06 0 0)
(5.29258e-06 0 0)
(5.26247e-06 0 0)
(5.15533e-06 0 0)
(5.06075e-06 0 0)
)
;

boundaryField
{
    inlet
    {
        type            fixedValue;
        value           uniform (0.005 0 0);
    }
    outlet
    {
        type            zeroGradient;
    }
    yzfaces
    {
        type            empty;
    }
}


// ************************************************************************* //
