/*--------------------------------*- C++ -*----------------------------------*\
| =========                 |                                                 |
| \\      /  F ield         | foam-extend: Open Source CFD                    |
|  \\    /   O peration     | Version:     5.0                                |
|   \\  /    A nd           | Web:         http://www.foam-extend.org         |
|    \\/     M anipulation  |                                                 |
\*---------------------------------------------------------------------------*/
FoamFile
{
    version     2.0;
    format      ascii;
    class       surfaceScalarField;
    location    "6";
    object      phi;
}
// * * * * * * * * * * * * * * * * * * * * * * * * * * * * * * * * * * * * * //

dimensions      [0 3 -1 0 0 0 0];

internalField   nonuniform List<scalar> 
99
(
1.22366e-06
1.22582e-06
1.22772e-06
1.22043e-06
1.22627e-06
1.22196e-06
1.21468e-06
1.21825e-06
1.21486e-06
1.2203e-06
1.21929e-06
1.22229e-06
1.22037e-06
1.21608e-06
1.22206e-06
1.22077e-06
1.22123e-06
1.2218e-06
1.22285e-06
1.22272e-06
1.2209e-06
1.2216e-06
1.22336e-06
1.22308e-06
1.22369e-06
1.22038e-06
1.22421e-06
1.22574e-06
1.22721e-06
1.22469e-06
1.22538e-06
1.22271e-06
1.22471e-06
1.23055e-06
1.22282e-06
1.22766e-06
1.22816e-06
1.22639e-06
1.22573e-06
1.22544e-06
1.22535e-06
1.2273e-06
1.22471e-06
1.22687e-06
1.22348e-06
1.2266e-06
1.22419e-06
1.22689e-06
1.22622e-06
1.22782e-06
1.22476e-06
1.22404e-06
1.2239e-06
1.22194e-06
1.22244e-06
1.22162e-06
1.22008e-06
1.2206e-06
1.22081e-06
1.22137e-06
1.2214e-06
1.22215e-06
1.22126e-06
1.22078e-06
1.21809e-06
1.21988e-06
1.21751e-06
1.21823e-06
1.21859e-06
1.21808e-06
1.21685e-06
1.2185e-06
1.21831e-06
1.21875e-06
1.21905e-06
1.22088e-06
1.22018e-06
1.21898e-06
1.21913e-06
1.21802e-06
1.21889e-06
1.21802e-06
1.21688e-06
1.21832e-06
1.21728e-06
1.21764e-06
1.2184e-06
1.21803e-06
1.21982e-06
1.22059e-06
1.2238e-06
1.22084e-06
1.2218e-06
1.22067e-06
1.22283e-06
1.22148e-06
1.22331e-06
1.22477e-06
1.22527e-06
)
;

boundaryField
{
    inlet
    {
        type            calculated;
        value           uniform -1.225e-06;
    }
    outlet
    {
        type            calculated;
        value           uniform 1.22466e-06;
    }
    yzfaces
    {
        type            empty;
    }
}


// ************************************************************************* //
