/*--------------------------------*- C++ -*----------------------------------*\
| =========                 |                                                 |
| \\      /  F ield         | foam-extend: Open Source CFD                    |
|  \\    /   O peration     | Version:     5.0                                |
|   \\  /    A nd           | Web:         http://www.foam-extend.org         |
|    \\/     M anipulation  |                                                 |
\*---------------------------------------------------------------------------*/
FoamFile
{
    version     2.0;
    format      ascii;
    class       volScalarField;
    location    "6";
    object      YH2O;
}
// * * * * * * * * * * * * * * * * * * * * * * * * * * * * * * * * * * * * * //

dimensions      [0 0 0 0 0 0 0];

internalField   nonuniform List<scalar> 
100
(
-0.00344411
0.00345413
-0.00409311
0.00268336
-0.00202435
0.00291111
-0.00169392
0.00320844
-0.0015715
0.000685435
0.00185104
-0.0025872
0.0031726
-0.0044595
-0.000139784
-0.00674439
-0.000594146
-0.00216075
-0.0010225
-0.00164623
-0.00167698
0.00106752
-0.0022892
0.00044782
-0.000875684
0.00205575
-0.0014057
-0.000583282
-0.000853449
0.000455332
-0.00236644
0.000104584
-0.00268815
0.000966055
-0.000971373
0.000406351
0.000697919
-0.0010165
-0.00123691
-0.00195522
0.00169152
0.000135758
0.00106062
-0.000663803
0.000359539
0.000872525
-0.000599047
0.000991111
-0.00243176
0.00284622
-0.00265948
0.00267225
-0.00400725
0.00374443
-0.00539528
0.00367194
-0.00597666
0.00221667
-0.00600226
0.00376103
-0.00516723
0.0042069
-0.00220068
0.00295459
-0.00134579
0.00227437
0.000428395
0.000663975
0.00252294
-0.00130614
0.00233278
-0.00237251
0.00529686
-0.0047804
0.00673355
-0.0057273
0.00525593
-0.00322246
0.00333097
-0.00388455
0.00292298
-0.003171
0.00282522
-0.00240604
0.00333272
-0.00128583
0.00085152
-0.00100475
0.000617495
-1.25001e-05
0.000488456
-0.000378899
0.000351422
0.000639812
-0.00177629
0.00127966
-0.00199634
0.000287021
-0.00171263
-2.09091e-05
)
;

boundaryField
{
    inlet
    {
        type            calculated;
        value           uniform 0;
    }
    outlet
    {
        type            calculated;
        value           uniform -2.09091e-05;
    }
    yzfaces
    {
        type            empty;
    }
}


// ************************************************************************* //
