/*--------------------------------*- C++ -*----------------------------------*\
| =========                 |                                                 |
| \\      /  F ield         | foam-extend: Open Source CFD                    |
|  \\    /   O peration     | Version:     5.0                                |
|   \\  /    A nd           | Web:         http://www.foam-extend.org         |
|    \\/     M anipulation  |                                                 |
\*---------------------------------------------------------------------------*/
FoamFile
{
    version     2.0;
    format      ascii;
    class       volVectorField;
    location    "10";
    object      U.gas;
}
// * * * * * * * * * * * * * * * * * * * * * * * * * * * * * * * * * * * * * //

dimensions      [0 1 -1 0 0 0 0];

internalField   nonuniform List<vector> 
100
(
(5.65525e-05 0 0)
(0.000126472 0 0)
(0.000191752 0 0)
(0.000255143 0 0)
(0.000317159 0 0)
(0.000378026 0 0)
(0.000438707 0 0)
(0.000499077 0 0)
(0.00055838 0 0)
(0.00061823 0 0)
(0.000678124 0 0)
(0.000737729 0 0)
(0.000797804 0 0)
(0.000856802 0 0)
(0.00091663 0 0)
(0.000977151 0 0)
(0.00103749 0 0)
(0.00109835 0 0)
(0.00115856 0 0)
(0.0012201 0 0)
(0.00128159 0 0)
(0.00134175 0 0)
(0.00140418 0 0)
(0.00146561 0 0)
(0.00152809 0 0)
(0.00159261 0 0)
(0.00165706 0 0)
(0.00172184 0 0)
(0.00179024 0 0)
(0.00185866 0 0)
(0.00192825 0 0)
(0.00199969 0 0)
(0.00207306 0 0)
(0.00215243 0 0)
(0.00223441 0 0)
(0.00232027 0 0)
(0.00241238 0 0)
(0.00251123 0 0)
(0.00262377 0 0)
(0.00274965 0 0)
(0.0028993 0 0)
(0.00308697 0 0)
(0.00333343 0 0)
(0.00368006 0 0)
(0.0042365 0 0)
(0.00519808 0 0)
(0.00610947 0 0)
(0.00570333 0 0)
(0.00538442 0 0)
(0.00521954 0 0)
(0.00517826 0 0)
(0.00517228 0 0)
(0.00517468 0 0)
(0.00517085 0 0)
(0.00505023 0 0)
(0.00501987 0 0)
(0.0050237 0 0)
(0.00497677 0 0)
(0.00489825 0 0)
(0.00492667 0 0)
(0.00498734 0 0)
(0.00492651 0 0)
(0.00495692 0 0)
(0.00501774 0 0)
(0.00498733 0 0)
(0.00501774 0 0)
(0.00498733 0 0)
(0.00492651 0 0)
(0.00498733 0 0)
(0.00504815 0 0)
(0.00510897 0 0)
(0.00513938 0 0)
(0.0052002 0 0)
(0.0052002 0 0)
(0.0052002 0 0)
(0.00526102 0 0)
(0.00523061 0 0)
(0.0052002 0 0)
(0.0052002 0 0)
(0.0052002 0 0)
(0.00523061 0 0)
(0.00526102 0 0)
(0.00523061 0 0)
(0.00523061 0 0)
(0.00516979 0 0)
(0.00507856 0 0)
(0.00513938 0 0)
(0.00523061 0 0)
(0.00526102 0 0)
(0.00523061 0 0)
(0.0052002 0 0)
(0.00523061 0 0)
(0.00529143 0 0)
(0.00529143 0 0)
(0.00529143 0 0)
(0.00526102 0 0)
(0.00529143 0 0)
(0.00541307 0 0)
(0.0054739 0 0)
(0.0054739 0 0)
)
;

boundaryField
{
    inlet
    {
        type            fixedValue;
        value           uniform (0 0 0);
    }
    outlet
    {
        type            zeroGradient;
    }
    yzfaces
    {
        type            empty;
    }
}


// ************************************************************************* //
