/*--------------------------------*- C++ -*----------------------------------*\
| =========                 |                                                 |
| \\      /  F ield         | foam-extend: Open Source CFD                    |
|  \\    /   O peration     | Version:     5.0                                |
|   \\  /    A nd           | Web:         http://www.foam-extend.org         |
|    \\/     M anipulation  |                                                 |
\*---------------------------------------------------------------------------*/
FoamFile
{
    version     2.0;
    format      ascii;
    class       volScalarField;
    location    "10";
    object      YCO2;
}
// * * * * * * * * * * * * * * * * * * * * * * * * * * * * * * * * * * * * * //

dimensions      [0 0 0 0 0 0 0];

internalField   nonuniform List<scalar> 
100
(
0.0171603
-0.0200139
0.0180406
-0.00479497
-0.00441516
-0.00302287
0.00108332
0.0191564
-0.0360105
0.0226294
0.0151332
-0.0427938
0.0448551
-0.033939
0.0247103
-0.02015
0.0169237
-0.0150026
0.0194151
-0.0309884
0.0440628
-0.0516474
0.0483988
-0.0349139
0.0184541
-0.00733268
0.00341563
-0.00130722
-0.000872542
-0.000555743
0.00706812
-0.0139995
0.0146865
-0.00916715
0.00358638
-0.00102497
9.3156e-05
-0.000371887
0.00304562
-0.00712374
0.0096878
-0.0096377
0.00893616
-0.0097257
0.0108541
-0.0101
0.00841203
-0.00860855
0.0161828
-0.0334826
0.0417291
-0.0181427
0.0671697
0.0676802
0.191349
0.289663
0.457134
0.484372
0.747414
0.678737
0.889322
0.758805
1.01613
0.834107
1.03686
0.948182
1.00272
1.00161
0.929298
1.0545
0.907186
1.02412
0.95206
1.00933
1.05522
0.956978
1.1302
0.961165
1.084
0.966612
1.067
0.963667
1.07289
0.960993
1.0396
0.971692
0.992618
1.00699
1.00133
0.99387
1.00815
0.970782
1.00785
0.948047
0.971133
0.944128
0.982798
0.984035
0.995305
1.02424
)
;

boundaryField
{
    inlet
    {
        type            fixedValue;
        value           uniform 0;
    }
    outlet
    {
        type            zeroGradient;
    }
    yzfaces
    {
        type            empty;
    }
}


// ************************************************************************* //
