/*--------------------------------*- C++ -*----------------------------------*\
| =========                 |                                                 |
| \\      /  F ield         | foam-extend: Open Source CFD                    |
|  \\    /   O peration     | Version:     5.0                                |
|   \\  /    A nd           | Web:         http://www.foam-extend.org         |
|    \\/     M anipulation  |                                                 |
\*---------------------------------------------------------------------------*/
FoamFile
{
    version     2.0;
    format      ascii;
    class       surfaceScalarField;
    location    "8";
    object      phi;
}
// * * * * * * * * * * * * * * * * * * * * * * * * * * * * * * * * * * * * * //

dimensions      [0 3 -1 0 0 0 0];

internalField   nonuniform List<scalar> 
99
(
1.22503e-06
1.22504e-06
1.22611e-06
1.22575e-06
1.2254e-06
1.22425e-06
1.22512e-06
1.2245e-06
1.22443e-06
1.22422e-06
1.22464e-06
1.22467e-06
1.22563e-06
1.22607e-06
1.22719e-06
1.227e-06
1.22723e-06
1.22685e-06
1.22619e-06
1.22604e-06
1.22519e-06
1.22638e-06
1.22571e-06
1.22563e-06
1.22519e-06
1.22466e-06
1.22436e-06
1.22507e-06
1.22557e-06
1.22556e-06
1.22553e-06
1.22584e-06
1.22628e-06
1.22478e-06
1.2263e-06
1.22548e-06
1.22637e-06
1.22574e-06
1.22704e-06
1.22736e-06
1.21166e-06
1.19248e-06
1.2219e-06
1.2666e-06
1.2219e-06
1.2368e-06
1.2517e-06
1.2517e-06
1.2368e-06
1.2219e-06
1.2219e-06
1.2219e-06
1.2368e-06
1.2368e-06
1.20699e-06
1.20699e-06
1.2517e-06
1.2219e-06
1.2517e-06
1.2666e-06
1.2666e-06
1.20699e-06
1.2219e-06
1.2219e-06
1.20699e-06
1.2517e-06
1.19209e-06
1.2666e-06
1.2517e-06
1.2666e-06
1.2368e-06
1.2368e-06
1.2517e-06
1.2219e-06
1.2517e-06
1.2517e-06
1.2517e-06
1.20699e-06
1.2368e-06
1.19209e-06
1.2219e-06
1.20699e-06
1.19209e-06
1.2517e-06
1.2517e-06
1.2964e-06
1.3113e-06
1.3113e-06
1.3113e-06
1.2964e-06
1.3411e-06
1.2517e-06
1.2964e-06
1.2815e-06
1.3113e-06
1.2517e-06
1.2368e-06
1.2666e-06
1.2219e-06
)
;

boundaryField
{
    inlet
    {
        type            calculated;
        value           uniform -1.225e-06;
    }
    outlet
    {
        type            calculated;
        value           uniform 1.2517e-06;
    }
    yzfaces
    {
        type            empty;
    }
}


// ************************************************************************* //
