/*--------------------------------*- C++ -*----------------------------------*\
| =========                 |                                                 |
| \\      /  F ield         | foam-extend: Open Source CFD                    |
|  \\    /   O peration     | Version:     5.0                                |
|   \\  /    A nd           | Web:         http://www.foam-extend.org         |
|    \\/     M anipulation  |                                                 |
\*---------------------------------------------------------------------------*/
FoamFile
{
    version     2.0;
    format      ascii;
    class       volVectorField;
    location    "8";
    object      U.gas;
}
// * * * * * * * * * * * * * * * * * * * * * * * * * * * * * * * * * * * * * //

dimensions      [0 1 -1 0 0 0 0];

internalField   nonuniform List<vector> 
100
(
(6.73088e-05 0 0)
(0.000150744 0 0)
(0.000228496 0 0)
(0.000302457 0 0)
(0.000375812 0 0)
(0.000447502 0 0)
(0.000520738 0 0)
(0.000591348 0 0)
(0.000662141 0 0)
(0.000733597 0 0)
(0.000805422 0 0)
(0.000876097 0 0)
(0.000946934 0 0)
(0.00101785 0 0)
(0.00109124 0 0)
(0.00116395 0 0)
(0.00123791 0 0)
(0.00131173 0 0)
(0.00138459 0 0)
(0.00145937 0 0)
(0.00153348 0 0)
(0.00161083 0 0)
(0.00168741 0 0)
(0.00176578 0 0)
(0.00184841 0 0)
(0.00193049 0 0)
(0.0020166 0 0)
(0.00210882 0 0)
(0.00220297 0 0)
(0.00230046 0 0)
(0.00240783 0 0)
(0.00252495 0 0)
(0.00266351 0 0)
(0.00282033 0 0)
(0.00302025 0 0)
(0.00328077 0 0)
(0.00366822 0 0)
(0.00434501 0 0)
(0.00598402 0 0)
(0.0114927 0 0)
(0.00523526 0 0)
(0.00490522 0 0)
(0.0049273 0 0)
(0.00507856 0 0)
(0.00507856 0 0)
(0.00501774 0 0)
(0.00507856 0 0)
(0.00510897 0 0)
(0.00507856 0 0)
(0.00501774 0 0)
(0.00498733 0 0)
(0.00498733 0 0)
(0.00501774 0 0)
(0.00504815 0 0)
(0.00498733 0 0)
(0.00492651 0 0)
(0.00501774 0 0)
(0.00504815 0 0)
(0.00504815 0 0)
(0.00513938 0 0)
(0.00516979 0 0)
(0.00504815 0 0)
(0.00495692 0 0)
(0.00498733 0 0)
(0.00495692 0 0)
(0.00501774 0 0)
(0.00498733 0 0)
(0.00501774 0 0)
(0.00513938 0 0)
(0.00513938 0 0)
(0.00510897 0 0)
(0.00504815 0 0)
(0.00507856 0 0)
(0.00504815 0 0)
(0.00504815 0 0)
(0.00510897 0 0)
(0.00510897 0 0)
(0.00501774 0 0)
(0.00498733 0 0)
(0.00495692 0 0)
(0.00492651 0 0)
(0.00495692 0 0)
(0.0048961 0 0)
(0.00498733 0 0)
(0.00510897 0 0)
(0.0052002 0 0)
(0.00532184 0 0)
(0.00535225 0 0)
(0.00535225 0 0)
(0.00532184 0 0)
(0.00538266 0 0)
(0.00529143 0 0)
(0.0052002 0 0)
(0.00526102 0 0)
(0.00529143 0 0)
(0.00523061 0 0)
(0.00507856 0 0)
(0.00510897 0 0)
(0.00507856 0 0)
(0.00504815 0 0)
)
;

boundaryField
{
    inlet
    {
        type            fixedValue;
        value           uniform (0 0 0);
    }
    outlet
    {
        type            zeroGradient;
    }
    yzfaces
    {
        type            empty;
    }
}


// ************************************************************************* //
