/*--------------------------------*- C++ -*----------------------------------*\
| =========                 |                                                 |
| \\      /  F ield         | foam-extend: Open Source CFD                    |
|  \\    /   O peration     | Version:     5.0                                |
|   \\  /    A nd           | Web:         http://www.foam-extend.org         |
|    \\/     M anipulation  |                                                 |
\*---------------------------------------------------------------------------*/
FoamFile
{
    version     2.0;
    format      ascii;
    class       surfaceScalarField;
    location    "7";
    object      phi;
}
// * * * * * * * * * * * * * * * * * * * * * * * * * * * * * * * * * * * * * //

dimensions      [0 3 -1 0 0 0 0];

internalField   nonuniform List<scalar> 
99
(
1.22801e-06
1.22507e-06
1.23261e-06
1.2263e-06
1.22817e-06
1.21826e-06
1.22595e-06
1.22408e-06
1.22619e-06
1.23149e-06
1.23207e-06
1.22937e-06
1.23286e-06
1.2264e-06
1.22925e-06
1.22347e-06
1.23006e-06
1.22117e-06
1.22795e-06
1.2266e-06
1.22728e-06
1.2269e-06
1.22502e-06
1.22458e-06
1.22356e-06
1.22636e-06
1.22353e-06
1.22565e-06
1.22503e-06
1.22662e-06
1.22285e-06
1.22044e-06
1.21815e-06
1.21722e-06
1.21829e-06
1.21901e-06
1.21683e-06
1.22115e-06
1.21998e-06
1.22206e-06
1.219e-06
1.21819e-06
1.2197e-06
1.22027e-06
1.21532e-06
1.2131e-06
1.2149e-06
1.21761e-06
1.21274e-06
1.21506e-06
1.2102e-06
1.21292e-06
1.21041e-06
1.21232e-06
1.20975e-06
1.21064e-06
1.21324e-06
1.21176e-06
1.21173e-06
1.21326e-06
1.21165e-06
1.2137e-06
1.21188e-06
1.21218e-06
1.21051e-06
1.21044e-06
1.21086e-06
1.21226e-06
1.21175e-06
1.21029e-06
1.21077e-06
1.20908e-06
1.21086e-06
1.21056e-06
1.20976e-06
1.20966e-06
1.21009e-06
1.20979e-06
1.21108e-06
1.21206e-06
1.21063e-06
1.20914e-06
1.21017e-06
1.21242e-06
1.21025e-06
1.21117e-06
1.21021e-06
1.21027e-06
1.21014e-06
1.21183e-06
1.2092e-06
1.21076e-06
1.21123e-06
1.20959e-06
1.21225e-06
1.21079e-06
1.20996e-06
1.20924e-06
1.20784e-06
)
;

boundaryField
{
    inlet
    {
        type            calculated;
        value           uniform -1.225e-06;
    }
    outlet
    {
        type            calculated;
        value           uniform 1.20933e-06;
    }
    yzfaces
    {
        type            empty;
    }
}


// ************************************************************************* //
