/*--------------------------------*- C++ -*----------------------------------*\
| =========                 |                                                 |
| \\      /  F ield         | foam-extend: Open Source CFD                    |
|  \\    /   O peration     | Version:     5.0                                |
|   \\  /    A nd           | Web:         http://www.foam-extend.org         |
|    \\/     M anipulation  |                                                 |
\*---------------------------------------------------------------------------*/
FoamFile
{
    version     2.0;
    format      ascii;
    class       volScalarField;
    location    "7";
    object      YH2O;
}
// * * * * * * * * * * * * * * * * * * * * * * * * * * * * * * * * * * * * * //

dimensions      [0 0 0 0 0 0 0];

internalField   nonuniform List<scalar> 
100
(
0.00218581
-0.0048502
0.00243725
-0.00338947
0.000853708
-0.00230493
0.00301201
-0.00169073
-0.00374868
0.00325332
-0.00876023
0.00764312
-0.00155621
0.00105856
-0.00264236
0.00199353
0.000435598
0.00520893
-0.0016691
0.0027627
-0.000454025
0.00292166
0.00138885
0.00048787
-0.00316804
0.00277146
-0.0032733
6.65979e-05
-0.00137752
-0.0017792
-0.0053003
0.000552378
-0.00692959
0.00192914
-0.00831104
0.00472259
-0.00955997
0.00646498
-0.012656
0.00687388
-0.0133861
0.00963255
-0.0135916
0.0129004
-0.0169712
0.0121078
-0.0153511
0.0121609
-0.0147828
0.0150204
-0.0148975
0.0148212
-0.0141473
0.0115512
-0.0125769
0.0107817
-0.00892443
0.00965877
-0.00739262
0.00670402
-0.00521209
0.00460064
-0.00551362
0.00408645
-0.00368675
0.00272722
-0.000560636
-0.00139939
0.000116051
-0.00177396
0.000390973
-0.00170578
-0.00120126
-0.000563559
-0.00163713
-0.000469945
-0.00112315
0.000312192
-0.00100955
-4.98815e-05
-0.000107549
-0.000728828
0.000573899
0.000174872
-0.000231951
0.000272977
0.00149046
0.000236763
0.0016452
0.000832937
0.00044028
-0.000506879
-2.63579e-05
-1.17262e-05
-0.000187349
-9.81283e-06
0.000441706
-0.000168755
0.000951143
0.000218194
)
;

boundaryField
{
    inlet
    {
        type            calculated;
        value           uniform 0;
    }
    outlet
    {
        type            calculated;
        value           uniform 0.000218194;
    }
    yzfaces
    {
        type            empty;
    }
}


// ************************************************************************* //
