/*--------------------------------*- C++ -*----------------------------------*\
| =========                 |                                                 |
| \\      /  F ield         | foam-extend: Open Source CFD                    |
|  \\    /   O peration     | Version:     5.0                                |
|   \\  /    A nd           | Web:         http://www.foam-extend.org         |
|    \\/     M anipulation  |                                                 |
\*---------------------------------------------------------------------------*/
FoamFile
{
    version     2.0;
    format      ascii;
    class       surfaceScalarField;
    location    "2";
    object      phi;
}
// * * * * * * * * * * * * * * * * * * * * * * * * * * * * * * * * * * * * * //

dimensions      [0 3 -1 0 0 0 0];

internalField   nonuniform List<scalar> 
99
(
1.22713e-06
1.2207e-06
1.22481e-06
1.22755e-06
1.22213e-06
1.22914e-06
1.22671e-06
1.22998e-06
1.22663e-06
1.2265e-06
1.23135e-06
1.22502e-06
1.22191e-06
1.22248e-06
1.22024e-06
1.22371e-06
1.21963e-06
1.2186e-06
1.21611e-06
1.22128e-06
1.21591e-06
1.22161e-06
1.21745e-06
1.21851e-06
1.21685e-06
1.21863e-06
1.21674e-06
1.21884e-06
1.21831e-06
1.21695e-06
1.21789e-06
1.21606e-06
1.21894e-06
1.2172e-06
1.21659e-06
1.21614e-06
1.21833e-06
1.21246e-06
1.21614e-06
1.21454e-06
1.21422e-06
1.21493e-06
1.21326e-06
1.21389e-06
1.21394e-06
1.21415e-06
1.21525e-06
1.21414e-06
1.21531e-06
1.21352e-06
1.21398e-06
1.21358e-06
1.21297e-06
1.21374e-06
1.21421e-06
1.21513e-06
1.21398e-06
1.21444e-06
1.21421e-06
1.21444e-06
1.21398e-06
1.21398e-06
1.21351e-06
1.21375e-06
1.21375e-06
1.21398e-06
1.21421e-06
1.21375e-06
1.21375e-06
1.21351e-06
1.21351e-06
1.21281e-06
1.21468e-06
1.21375e-06
1.21398e-06
1.21398e-06
1.21468e-06
1.21421e-06
1.21468e-06
1.21468e-06
1.21514e-06
1.21514e-06
1.21514e-06
1.21491e-06
1.21538e-06
1.21491e-06
1.21538e-06
1.21491e-06
1.21538e-06
1.21538e-06
1.21514e-06
1.21514e-06
1.21468e-06
1.21468e-06
1.21491e-06
1.21468e-06
1.21468e-06
1.21491e-06
1.21421e-06
)
;

boundaryField
{
    inlet
    {
        type            calculated;
        value           uniform -1.225e-06;
    }
    outlet
    {
        type            calculated;
        value           uniform 1.21538e-06;
    }
    yzfaces
    {
        type            empty;
    }
}


// ************************************************************************* //
