/*--------------------------------*- C++ -*----------------------------------*\
| =========                 |                                                 |
| \\      /  F ield         | foam-extend: Open Source CFD                    |
|  \\    /   O peration     | Version:     5.0                                |
|   \\  /    A nd           | Web:         http://www.foam-extend.org         |
|    \\/     M anipulation  |                                                 |
\*---------------------------------------------------------------------------*/
FoamFile
{
    version     2.0;
    format      ascii;
    class       volVectorField;
    location    "2";
    object      U.water;
}
// * * * * * * * * * * * * * * * * * * * * * * * * * * * * * * * * * * * * * //

dimensions      [0 1 -1 0 0 0 0];

internalField   nonuniform List<vector> 
100
(
(3.25208e-05 0 0)
(7.72449e-05 0 0)
(0.000121456 0 0)
(0.000188458 0 0)
(0.000240445 0 0)
(0.000292981 0 0)
(0.000350524 0 0)
(0.000412018 0 0)
(0.000478503 0 0)
(0.000529603 0 0)
(0.000594874 0 0)
(0.00065343 0 0)
(0.000700293 0 0)
(0.000759898 0 0)
(0.000819933 0 0)
(0.000886155 0 0)
(0.000943854 0 0)
(0.000995347 0 0)
(0.00104918 0 0)
(0.0011121 0 0)
(0.00117044 0 0)
(0.00122685 0 0)
(0.00128837 0 0)
(0.00134141 0 0)
(0.00139911 0 0)
(0.00145846 0 0)
(0.00151742 0 0)
(0.00157597 0 0)
(0.00163697 0 0)
(0.00169489 0 0)
(0.00175676 0 0)
(0.00181792 0 0)
(0.0018845 0 0)
(0.00195121 0 0)
(0.00201234 0 0)
(0.00207982 0 0)
(0.00215346 0 0)
(0.00221987 0 0)
(0.00229252 0 0)
(0.00237562 0 0)
(0.00245655 0 0)
(0.00254755 0 0)
(0.00264257 0 0)
(0.0027473 0 0)
(0.00286514 0 0)
(0.0029964 0 0)
(0.0031494 0 0)
(0.00332579 0 0)
(0.00353751 0 0)
(0.00379385 0 0)
(0.00410229 0 0)
(0.0044503 0 0)
(0.00475241 0 0)
(0.00491136 0 0)
(0.00495237 0 0)
(0.00495783 0 0)
(0.00495737 0 0)
(0.00495597 0 0)
(0.00495644 0 0)
(0.00495644 0 0)
(0.00495597 0 0)
(0.00495502 0 0)
(0.00495407 0 0)
(0.00495359 0 0)
(0.00495407 0 0)
(0.00495454 0 0)
(0.00495549 0 0)
(0.00495502 0 0)
(0.00495407 0 0)
(0.00495359 0 0)
(0.00495312 0 0)
(0.00495169 0 0)
(0.00495407 0 0)
(0.00495597 0 0)
(0.00495454 0 0)
(0.00495502 0 0)
(0.00495644 0 0)
(0.00495692 0 0)
(0.00495692 0 0)
(0.00495787 0 0)
(0.00495882 0 0)
(0.00495977 0 0)
(0.00495977 0 0)
(0.00495929 0 0)
(0.00495977 0 0)
(0.00495977 0 0)
(0.00495977 0 0)
(0.00495977 0 0)
(0.00495977 0 0)
(0.00496072 0 0)
(0.00496024 0 0)
(0.00495977 0 0)
(0.00495882 0 0)
(0.00495787 0 0)
(0.00495834 0 0)
(0.00495834 0 0)
(0.00495787 0 0)
(0.00495834 0 0)
(0.00495739 0 0)
(0.00495834 0 0)
)
;

boundaryField
{
    inlet
    {
        type            fixedValue;
        value           uniform (0 0 0);
    }
    outlet
    {
        type            zeroGradient;
    }
    yzfaces
    {
        type            empty;
    }
}


// ************************************************************************* //
