/*--------------------------------*- C++ -*----------------------------------*\
| =========                 |                                                 |
| \\      /  F ield         | foam-extend: Open Source CFD                    |
|  \\    /   O peration     | Version:     5.0                                |
|   \\  /    A nd           | Web:         http://www.foam-extend.org         |
|    \\/     M anipulation  |                                                 |
\*---------------------------------------------------------------------------*/
FoamFile
{
    version     2.0;
    format      ascii;
    class       volScalarField;
    location    "9";
    object      alpha.gas;
}
// * * * * * * * * * * * * * * * * * * * * * * * * * * * * * * * * * * * * * //

dimensions      [0 0 0 0 0 0 0];

internalField   nonuniform List<scalar> 
100
(
0.0916363
0.0904203
0.0892086
0.0879154
0.0868499
0.0856381
0.0845368
0.0833205
0.0821981
0.0810798
0.0801213
0.0789834
0.0780027
0.077109
0.0762043
0.0752411
0.0744163
0.0734935
0.0726157
0.0717318
0.0708885
0.0700917
0.0693141
0.0685748
0.0678456
0.0672301
0.066521
0.0658516
0.0651517
0.064565
0.0638491
0.0631745
0.0625275
0.0619636
0.0613366
0.0607743
0.0601425
0.0596657
0.0591448
0.0586027
0.0581094
0.057583
0.0570676
0.0565153
0.056108
0.0556411
0.0551873
0.0548075
0.0543381
0.053937
0.0535637
0.053116
0.0527456
0.0523877
0.0520304
0.0516618
0.0513129
0.0508831
0.0506004
0.0503066
0.0499032
0.0495254
0.0492192
0.048906
0.0486093
0.0482372
0.0479536
0.047673
0.0473937
0.0470709
0.0467721
0.0464913
0.0461947
0.045919
0.0456732
0.0453593
0.0450823
0.0447998
0.0445222
0.0442876
0.0440526
0.0437865
0.0435242
0.0432759
0.0430254
0.0427881
0.0425553
0.042324
0.0421067
0.0418487
0.0416299
0.0414196
0.0412032
0.0409664
0.0407597
0.040566
0.0403843
0.0402168
0.0401298
0.040039
)
;

boundaryField
{
    inlet
    {
        type            fixedValue;
        value           uniform 0.2;
    }
    outlet
    {
        type            zeroGradient;
    }
    yzfaces
    {
        type            empty;
    }
}


// ************************************************************************* //
