/*--------------------------------*- C++ -*----------------------------------*\
| =========                 |                                                 |
| \\      /  F ield         | foam-extend: Open Source CFD                    |
|  \\    /   O peration     | Version:     5.0                                |
|   \\  /    A nd           | Web:         http://www.foam-extend.org         |
|    \\/     M anipulation  |                                                 |
\*---------------------------------------------------------------------------*/
FoamFile
{
    version     2.0;
    format      ascii;
    class       surfaceScalarField;
    location    "9";
    object      phi;
}
// * * * * * * * * * * * * * * * * * * * * * * * * * * * * * * * * * * * * * //

dimensions      [0 3 -1 0 0 0 0];

internalField   nonuniform List<scalar> 
99
(
1.22705e-06
1.22313e-06
1.21599e-06
1.23078e-06
1.22387e-06
1.22757e-06
1.22026e-06
1.21983e-06
1.2213e-06
1.22994e-06
1.22098e-06
1.22248e-06
1.22308e-06
1.22258e-06
1.21539e-06
1.21989e-06
1.22039e-06
1.22229e-06
1.21916e-06
1.2216e-06
1.22582e-06
1.22222e-06
1.22304e-06
1.21807e-06
1.22439e-06
1.21874e-06
1.22111e-06
1.21759e-06
1.21772e-06
1.21452e-06
1.21701e-06
1.21913e-06
1.22367e-06
1.21957e-06
1.22334e-06
1.22048e-06
1.2267e-06
1.2271e-06
1.22808e-06
1.22917e-06
1.22983e-06
1.23336e-06
1.23522e-06
1.24014e-06
1.2362e-06
1.23545e-06
1.2407e-06
1.23471e-06
1.23986e-06
1.24187e-06
1.23721e-06
1.23887e-06
1.24041e-06
1.23835e-06
1.24157e-06
1.24384e-06
1.23823e-06
1.24509e-06
1.24078e-06
1.23554e-06
1.23893e-06
1.2426e-06
1.2399e-06
1.24045e-06
1.23441e-06
1.23947e-06
1.23862e-06
1.23779e-06
1.23416e-06
1.2352e-06
1.23816e-06
1.24011e-06
1.23968e-06
1.24333e-06
1.23763e-06
1.23976e-06
1.24065e-06
1.24089e-06
1.24135e-06
1.24054e-06
1.23692e-06
1.23963e-06
1.24047e-06
1.23874e-06
1.23858e-06
1.23825e-06
1.23844e-06
1.23855e-06
1.2381e-06
1.23967e-06
1.24083e-06
1.23812e-06
1.24102e-06
1.24122e-06
1.24028e-06
1.24101e-06
1.23994e-06
1.24211e-06
1.24028e-06
)
;

boundaryField
{
    inlet
    {
        type            calculated;
        value           uniform -1.225e-06;
    }
    outlet
    {
        type            calculated;
        value           uniform 1.24166e-06;
    }
    yzfaces
    {
        type            empty;
    }
}


// ************************************************************************* //
