/*--------------------------------*- C++ -*----------------------------------*\
| =========                 |                                                 |
| \\      /  F ield         | foam-extend: Open Source CFD                    |
|  \\    /   O peration     | Version:     5.0                                |
|   \\  /    A nd           | Web:         http://www.foam-extend.org         |
|    \\/     M anipulation  |                                                 |
\*---------------------------------------------------------------------------*/
FoamFile
{
    version     2.0;
    format      ascii;
    class       volVectorField;
    location    "9";
    object      U.gas;
}
// * * * * * * * * * * * * * * * * * * * * * * * * * * * * * * * * * * * * * //

dimensions      [0 1 -1 0 0 0 0];

internalField   nonuniform List<vector> 
100
(
(0.0109101 0 0)
(0.0110307 0 0)
(0.0111267 0 0)
(0.0112958 0 0)
(0.011448 0 0)
(0.0115843 0 0)
(0.0117031 0 0)
(0.0118233 0 0)
(0.0119607 0 0)
(0.0121376 0 0)
(0.0122657 0 0)
(0.0123875 0 0)
(0.0125036 0 0)
(0.0126206 0 0)
(0.0127197 0 0)
(0.0128363 0 0)
(0.0129776 0 0)
(0.0131378 0 0)
(0.0132605 0 0)
(0.0133901 0 0)
(0.0135481 0 0)
(0.0136702 0 0)
(0.0137734 0 0)
(0.013865 0 0)
(0.0139769 0 0)
(0.0140802 0 0)
(0.0141925 0 0)
(0.0142993 0 0)
(0.0143905 0 0)
(0.0144769 0 0)
(0.0146177 0 0)
(0.0147565 0 0)
(0.0148982 0 0)
(0.0150005 0 0)
(0.015118 0 0)
(0.0152297 0 0)
(0.0153602 0 0)
(0.0154712 0 0)
(0.0155938 0 0)
(0.015711 0 0)
(0.0158177 0 0)
(0.0159553 0 0)
(0.0160981 0 0)
(0.0162392 0 0)
(0.01631 0 0)
(0.016387 0 0)
(0.0164973 0 0)
(0.0165723 0 0)
(0.0166745 0 0)
(0.0167891 0 0)
(0.016858 0 0)
(0.0169377 0 0)
(0.0170202 0 0)
(0.0170922 0 0)
(0.0171813 0 0)
(0.0173001 0 0)
(0.0173647 0 0)
(0.0174615 0 0)
(0.0175086 0 0)
(0.0175305 0 0)
(0.01763 0 0)
(0.0177476 0 0)
(0.0178073 0 0)
(0.0178601 0 0)
(0.017899 0 0)
(0.0179798 0 0)
(0.0180505 0 0)
(0.0181024 0 0)
(0.018143 0 0)
(0.0182055 0 0)
(0.0182938 0 0)
(0.0183921 0 0)
(0.0184714 0 0)
(0.0185479 0 0)
(0.0185943 0 0)
(0.0186529 0 0)
(0.0187308 0 0)
(0.0188054 0 0)
(0.0188663 0 0)
(0.018905 0 0)
(0.0189326 0 0)
(0.0189965 0 0)
(0.0190798 0 0)
(0.0191271 0 0)
(0.0191688 0 0)
(0.0192137 0 0)
(0.0192647 0 0)
(0.0193182 0 0)
(0.0193705 0 0)
(0.0194428 0 0)
(0.0195 0 0)
(0.0195357 0 0)
(0.019593 0 0)
(0.0196711 0 0)
(0.0197002 0 0)
(0.0197361 0 0)
(0.0197662 0 0)
(0.01979 0 0)
(0.0197858 0 0)
(0.0197864 0 0)
)
;

boundaryField
{
    inlet
    {
        type            fixedValue;
        value           uniform (0.005 0 0);
    }
    outlet
    {
        type            zeroGradient;
    }
    yzfaces
    {
        type            empty;
    }
}


// ************************************************************************* //
