/*--------------------------------*- C++ -*----------------------------------*\
| =========                 |                                                 |
| \\      /  F ield         | foam-extend: Open Source CFD                    |
|  \\    /   O peration     | Version:     5.0                                |
|   \\  /    A nd           | Web:         http://www.foam-extend.org         |
|    \\/     M anipulation  |                                                 |
\*---------------------------------------------------------------------------*/
FoamFile
{
    version     2.0;
    format      ascii;
    class       volVectorField;
    location    "9";
    object      U.water;
}
// * * * * * * * * * * * * * * * * * * * * * * * * * * * * * * * * * * * * * //

dimensions      [0 1 -1 0 0 0 0];

internalField   nonuniform List<vector> 
100
(
(9.96771e-06 0 0)
(2.44441e-05 0 0)
(2.67348e-05 0 0)
(5.00769e-05 0 0)
(6.75638e-05 0 0)
(7.46213e-05 0 0)
(8.45813e-05 0 0)
(9.28353e-05 0 0)
(0.000112338 0 0)
(0.000137872 0 0)
(0.000147104 0 0)
(0.00015637 0 0)
(0.000187514 0 0)
(0.000203983 0 0)
(0.000208391 0 0)
(0.000225831 0 0)
(0.000241195 0 0)
(0.000248758 0 0)
(0.000263669 0 0)
(0.000278574 0 0)
(0.000298565 0 0)
(0.000315864 0 0)
(0.000331925 0 0)
(0.000346847 0 0)
(0.000368153 0 0)
(0.000380979 0 0)
(0.00038777 0 0)
(0.00040073 0 0)
(0.000418516 0 0)
(0.000428625 0 0)
(0.000434311 0 0)
(0.000453874 0 0)
(0.000476536 0 0)
(0.000490856 0 0)
(0.000503526 0 0)
(0.000516458 0 0)
(0.000536625 0 0)
(0.000559027 0 0)
(0.000566704 0 0)
(0.000581696 0 0)
(0.000595668 0 0)
(0.000608296 0 0)
(0.000622018 0 0)
(0.000645285 0 0)
(0.000664581 0 0)
(0.00067226 0 0)
(0.000692176 0 0)
(0.000703119 0 0)
(0.00071376 0 0)
(0.000735281 0 0)
(0.000743588 0 0)
(0.000755591 0 0)
(0.000775585 0 0)
(0.000787995 0 0)
(0.000799228 0 0)
(0.000813693 0 0)
(0.000820907 0 0)
(0.000838978 0 0)
(0.000861428 0 0)
(0.000860731 0 0)
(0.000867393 0 0)
(0.000889949 0 0)
(0.000907305 0 0)
(0.000919429 0 0)
(0.00092531 0 0)
(0.000938616 0 0)
(0.000959445 0 0)
(0.000970158 0 0)
(0.000976977 0 0)
(0.000987083 0 0)
(0.00100435 0 0)
(0.00101927 0 0)
(0.00103296 0 0)
(0.00104991 0 0)
(0.00105864 0 0)
(0.0010676 0 0)
(0.00108434 0 0)
(0.00109791 0 0)
(0.00111393 0 0)
(0.00112875 0 0)
(0.00113614 0 0)
(0.00114616 0 0)
(0.00116218 0 0)
(0.00117518 0 0)
(0.00118751 0 0)
(0.00120113 0 0)
(0.00121364 0 0)
(0.00122653 0 0)
(0.00123659 0 0)
(0.00124994 0 0)
(0.00126706 0 0)
(0.00127794 0 0)
(0.00128846 0 0)
(0.00130354 0 0)
(0.00131803 0 0)
(0.00133069 0 0)
(0.00134315 0 0)
(0.00135929 0 0)
(0.00137125 0 0)
(0.0013804 0 0)
)
;

boundaryField
{
    inlet
    {
        type            fixedValue;
        value           uniform (0 0 0);
    }
    outlet
    {
        type            zeroGradient;
    }
    yzfaces
    {
        type            empty;
    }
}


// ************************************************************************* //
