/*--------------------------------*- C++ -*----------------------------------*\
| =========                 |                                                 |
| \\      /  F ield         | foam-extend: Open Source CFD                    |
|  \\    /   O peration     | Version:     5.0                                |
|   \\  /    A nd           | Web:         http://www.foam-extend.org         |
|    \\/     M anipulation  |                                                 |
\*---------------------------------------------------------------------------*/
FoamFile
{
    version     2.0;
    format      ascii;
    class       volVectorField;
    location    "3";
    object      U.gas;
}
// * * * * * * * * * * * * * * * * * * * * * * * * * * * * * * * * * * * * * //

dimensions      [0 1 -1 0 0 0 0];

internalField   nonuniform List<vector> 
100
(
(0.000245034 0 0)
(0.000551772 0 0)
(0.000844012 0 0)
(0.00113633 0 0)
(0.00143602 0 0)
(0.00175216 0 0)
(0.00209671 0 0)
(0.00248588 0 0)
(0.00295133 0 0)
(0.00356424 0 0)
(0.00444664 0 0)
(0.00566141 0 0)
(0.00629012 0 0)
(0.00581267 0 0)
(0.00556499 0 0)
(0.0054569 0 0)
(0.00537195 0 0)
(0.00536537 0 0)
(0.00543556 0 0)
(0.0054209 0 0)
(0.0053387 0 0)
(0.005397 0 0)
(0.00546338 0 0)
(0.00545279 0 0)
(0.00542358 0 0)
(0.00542403 0 0)
(0.0053686 0 0)
(0.0053527 0 0)
(0.00544544 0 0)
(0.00542659 0 0)
(0.00540848 0 0)
(0.00543953 0 0)
(0.00540771 0 0)
(0.00543972 0 0)
(0.00545299 0 0)
(0.00543828 0 0)
(0.00550088 0 0)
(0.00546767 0 0)
(0.00543775 0 0)
(0.00550279 0 0)
(0.00550341 0 0)
(0.00550573 0 0)
(0.00553696 0 0)
(0.00553701 0 0)
(0.0055691 0 0)
(0.00553446 0 0)
(0.00545541 0 0)
(0.00540877 0 0)
(0.00536351 0 0)
(0.00531425 0 0)
(0.00529798 0 0)
(0.00527973 0 0)
(0.00524974 0 0)
(0.00531597 0 0)
(0.00534728 0 0)
(0.00534695 0 0)
(0.00536234 0 0)
(0.00541292 0 0)
(0.00542811 0 0)
(0.00538188 0 0)
(0.00538292 0 0)
(0.00538039 0 0)
(0.00536322 0 0)
(0.00537996 0 0)
(0.00542597 0 0)
(0.00544206 0 0)
(0.00537734 0 0)
(0.0052979 0 0)
(0.00529658 0 0)
(0.00526287 0 0)
(0.00523198 0 0)
(0.00523182 0 0)
(0.00521643 0 0)
(0.00521675 0 0)
(0.00519911 0 0)
(0.00518387 0 0)
(0.00521686 0 0)
(0.0051822 0 0)
(0.00515073 0 0)
(0.00513334 0 0)
(0.00508908 0 0)
(0.00511972 0 0)
(0.00515237 0 0)
(0.00510747 0 0)
(0.00507579 0 0)
(0.00505942 0 0)
(0.00506025 0 0)
(0.00507552 0 0)
(0.00504275 0 0)
(0.00500835 0 0)
(0.00502433 0 0)
(0.00505551 0 0)
(0.00507431 0 0)
(0.00512297 0 0)
(0.00512249 0 0)
(0.00511055 0 0)
(0.00515818 0 0)
(0.00517623 0 0)
(0.00514552 0 0)
(0.00520338 0 0)
)
;

boundaryField
{
    inlet
    {
        type            fixedValue;
        value           uniform (0 0 0);
    }
    outlet
    {
        type            zeroGradient;
    }
    yzfaces
    {
        type            empty;
    }
}


// ************************************************************************* //
