/*--------------------------------*- C++ -*----------------------------------*\
| =========                 |                                                 |
| \\      /  F ield         | foam-extend: Open Source CFD                    |
|  \\    /   O peration     | Version:     5.0                                |
|   \\  /    A nd           | Web:         http://www.foam-extend.org         |
|    \\/     M anipulation  |                                                 |
\*---------------------------------------------------------------------------*/
FoamFile
{
    version     2.0;
    format      ascii;
    class       volScalarField;
    location    "3";
    object      XH2O;
}
// * * * * * * * * * * * * * * * * * * * * * * * * * * * * * * * * * * * * * //

dimensions      [0 0 0 0 0 0 0];

internalField   nonuniform List<scalar> 
100
(
1.00102
0.99933
1.00111
0.995545
1.00963
0.994844
1.00439
0.981713
1.00941
1.00139
1.04107
1.00391
0.970369
0.880135
0.719133
0.582275
0.359755
0.263949
0.160579
0.0670234
0.0479387
0.0750406
-0.0443228
-0.033731
0.138445
-0.131527
0.0155443
0.00542605
0.0337895
0.0818383
0.00268742
-0.0665979
-0.0863326
-0.0146881
0.0432692
0.0144737
-0.0733896
0.00432196
-0.0297678
-0.0255677
-0.012327
0.0666637
-0.0862034
0.079849
0.0340131
-0.111586
-0.00117389
0.0231234
-0.0181377
0.0226375
-0.00688176
-0.0242983
0.0315444
-0.0451344
-0.00400356
0.0668703
0.018091
-0.0448526
0.0992096
-0.0530796
0.0717863
0.00310916
-0.0501171
0.074185
-0.0152542
-0.00245073
-0.000226926
0.00557915
-0.0516761
0.0115444
-0.0360728
0.0416861
-0.0643904
0.0513354
0.00977906
-0.0369436
0.0316794
-0.0620177
0.0310255
-0.0533134
-0.0633427
-0.0275458
0.0537448
0.0343934
-0.0737761
0.0556106
0.0203775
0.109912
-0.133598
0.0882681
-0.138222
-0.0042376
0.0940389
-0.00747038
-0.0265718
0.0447415
-0.113311
0.105651
-0.160812
0.296518
)
;

boundaryField
{
    inlet
    {
        type            calculated;
        value           uniform 1;
    }
    outlet
    {
        type            calculated;
        value           uniform 0.296518;
    }
    yzfaces
    {
        type            empty;
    }
}


// ************************************************************************* //
