/*--------------------------------*- C++ -*----------------------------------*\
| =========                 |                                                 |
| \\      /  F ield         | foam-extend: Open Source CFD                    |
|  \\    /   O peration     | Version:     5.0                                |
|   \\  /    A nd           | Web:         http://www.foam-extend.org         |
|    \\/     M anipulation  |                                                 |
\*---------------------------------------------------------------------------*/
FoamFile
{
    version     2.0;
    format      ascii;
    class       surfaceScalarField;
    location    "1";
    object      phi;
}
// * * * * * * * * * * * * * * * * * * * * * * * * * * * * * * * * * * * * * //

dimensions      [0 3 -1 0 0 0 0];

internalField   nonuniform List<scalar> 
99
(
1.22843e-06
1.21768e-06
1.22303e-06
1.2221e-06
1.22306e-06
1.22894e-06
1.22047e-06
1.22155e-06
1.222e-06
1.22235e-06
1.22492e-06
1.22122e-06
1.22175e-06
1.22057e-06
1.22393e-06
1.22177e-06
1.22505e-06
1.22086e-06
1.22573e-06
1.22508e-06
1.22358e-06
1.22566e-06
1.22616e-06
1.22501e-06
1.224e-06
1.22621e-06
1.22478e-06
1.22571e-06
1.22538e-06
1.22442e-06
1.22573e-06
1.22627e-06
1.22515e-06
1.22562e-06
1.22515e-06
1.22562e-06
1.22539e-06
1.22539e-06
1.22492e-06
1.22562e-06
1.22585e-06
1.22632e-06
1.22632e-06
1.22655e-06
1.22702e-06
1.22702e-06
1.22795e-06
1.22795e-06
1.22818e-06
1.22818e-06
1.22865e-06
1.22841e-06
1.22888e-06
1.22911e-06
1.22888e-06
1.22935e-06
1.22958e-06
1.23004e-06
1.23028e-06
1.23051e-06
1.23074e-06
1.23098e-06
1.23098e-06
1.23144e-06
1.23144e-06
1.23167e-06
1.23144e-06
1.23191e-06
1.23191e-06
1.23237e-06
1.23237e-06
1.23261e-06
1.23261e-06
1.23284e-06
1.23284e-06
1.23354e-06
1.23377e-06
1.234e-06
1.234e-06
1.234e-06
1.23424e-06
1.23447e-06
1.23493e-06
1.23517e-06
1.23517e-06
1.23587e-06
1.2361e-06
1.23587e-06
1.23587e-06
1.23633e-06
1.23633e-06
1.2368e-06
1.23726e-06
1.23773e-06
1.23773e-06
1.23819e-06
1.23843e-06
1.23889e-06
1.24006e-06
)
;

boundaryField
{
    inlet
    {
        type            calculated;
        value           uniform -1.225e-06;
    }
    outlet
    {
        type            calculated;
        value           uniform 1.23866e-06;
    }
    yzfaces
    {
        type            empty;
    }
}


// ************************************************************************* //
