/*--------------------------------*- C++ -*----------------------------------*\
| =========                 |                                                 |
| \\      /  F ield         | foam-extend: Open Source CFD                    |
|  \\    /   O peration     | Version:     5.0                                |
|   \\  /    A nd           | Web:         http://www.foam-extend.org         |
|    \\/     M anipulation  |                                                 |
\*---------------------------------------------------------------------------*/
FoamFile
{
    version     2.0;
    format      ascii;
    class       volVectorField;
    location    "1";
    object      U.water;
}
// * * * * * * * * * * * * * * * * * * * * * * * * * * * * * * * * * * * * * //

dimensions      [0 1 -1 0 0 0 0];

internalField   nonuniform List<vector> 
100
(
(5.45016e-05 0 0)
(0.000146114 0 0)
(0.000243327 0 0)
(0.000354391 0 0)
(0.000461163 0 0)
(0.000585421 0 0)
(0.000696212 0 0)
(0.000799241 0 0)
(0.00091979 0 0)
(0.00103496 0 0)
(0.00115541 0 0)
(0.00127211 0 0)
(0.00138724 0 0)
(0.00150678 0 0)
(0.00162993 0 0)
(0.00175555 0 0)
(0.00188417 0 0)
(0.00201415 0 0)
(0.00215166 0 0)
(0.00230305 0 0)
(0.0024507 0 0)
(0.00261467 0 0)
(0.00280111 0 0)
(0.00300362 0 0)
(0.00323388 0 0)
(0.00351162 0 0)
(0.00384146 0 0)
(0.0042225 0 0)
(0.00461212 0 0)
(0.00488297 0 0)
(0.00498536 0 0)
(0.00500375 0 0)
(0.00500292 0 0)
(0.00500158 0 0)
(0.00500158 0 0)
(0.00500158 0 0)
(0.00500206 0 0)
(0.00500158 0 0)
(0.00500063 0 0)
(0.00500111 0 0)
(0.00500301 0 0)
(0.00500443 0 0)
(0.00500538 0 0)
(0.00500586 0 0)
(0.00500728 0 0)
(0.00500823 0 0)
(0.00501014 0 0)
(0.00501204 0 0)
(0.00501251 0 0)
(0.00501299 0 0)
(0.00501394 0 0)
(0.00501441 0 0)
(0.00501489 0 0)
(0.00501631 0 0)
(0.00501631 0 0)
(0.00501679 0 0)
(0.00501821 0 0)
(0.00501964 0 0)
(0.00502106 0 0)
(0.00502201 0 0)
(0.00502296 0 0)
(0.00502392 0 0)
(0.00502439 0 0)
(0.00502534 0 0)
(0.00502629 0 0)
(0.00502677 0 0)
(0.00502677 0 0)
(0.00502724 0 0)
(0.00502819 0 0)
(0.00502914 0 0)
(0.00503009 0 0)
(0.00503057 0 0)
(0.00503104 0 0)
(0.00503152 0 0)
(0.00503199 0 0)
(0.00503342 0 0)
(0.00503532 0 0)
(0.00503627 0 0)
(0.00503674 0 0)
(0.00503674 0 0)
(0.00503722 0 0)
(0.00503817 0 0)
(0.0050396 0 0)
(0.00504102 0 0)
(0.0050415 0 0)
(0.00504292 0 0)
(0.00504482 0 0)
(0.00504482 0 0)
(0.00504435 0 0)
(0.0050453 0 0)
(0.00504625 0 0)
(0.0050472 0 0)
(0.0050491 0 0)
(0.005051 0 0)
(0.00505195 0 0)
(0.0050529 0 0)
(0.00505433 0 0)
(0.00505575 0 0)
(0.00505908 0 0)
(0.0050586 0 0)
)
;

boundaryField
{
    inlet
    {
        type            fixedValue;
        value           uniform (0 0 0);
    }
    outlet
    {
        type            zeroGradient;
    }
    yzfaces
    {
        type            empty;
    }
}


// ************************************************************************* //
