/*--------------------------------*- C++ -*----------------------------------*\
| =========                 |                                                 |
| \\      /  F ield         | foam-extend: Open Source CFD                    |
|  \\    /   O peration     | Version:     5.0                                |
|   \\  /    A nd           | Web:         http://www.foam-extend.org         |
|    \\/     M anipulation  |                                                 |
\*---------------------------------------------------------------------------*/
FoamFile
{
    version     2.0;
    format      ascii;
    class       volVectorField;
    location    "7";
    object      U.gas;
}
// * * * * * * * * * * * * * * * * * * * * * * * * * * * * * * * * * * * * * //

dimensions      [0 1 -1 0 0 0 0];

internalField   nonuniform List<vector> 
100
(
(8.39538e-05 0 0)
(0.000188 0 0)
(0.000285189 0 0)
(0.000379424 0 0)
(0.000471378 0 0)
(0.000562211 0 0)
(0.00065359 0 0)
(0.000744142 0 0)
(0.000835529 0 0)
(0.000926173 0 0)
(0.00101672 0 0)
(0.00110783 0 0)
(0.00119929 0 0)
(0.00129076 0 0)
(0.00138433 0 0)
(0.00147711 0 0)
(0.00157298 0 0)
(0.00167011 0 0)
(0.00177006 0 0)
(0.0018727 0 0)
(0.00197832 0 0)
(0.00208799 0 0)
(0.00220383 0 0)
(0.00232377 0 0)
(0.00245657 0 0)
(0.00260391 0 0)
(0.00276669 0 0)
(0.00295751 0 0)
(0.00319134 0 0)
(0.00349972 0 0)
(0.00393957 0 0)
(0.00459866 0 0)
(0.00561123 0 0)
(0.00645141 0 0)
(0.00597875 0 0)
(0.00568405 0 0)
(0.00555251 0 0)
(0.00550567 0 0)
(0.00542028 0 0)
(0.00538983 0 0)
(0.00535267 0 0)
(0.00532399 0 0)
(0.00527841 0 0)
(0.00515164 0 0)
(0.00510883 0 0)
(0.00511967 0 0)
(0.00508994 0 0)
(0.00496692 0 0)
(0.00499925 0 0)
(0.00503975 0 0)
(0.00496216 0 0)
(0.00499136 0 0)
(0.00502775 0 0)
(0.00510897 0 0)
(0.00512456 0 0)
(0.00509457 0 0)
(0.00514148 0 0)
(0.00515709 0 0)
(0.00519008 0 0)
(0.00525566 0 0)
(0.00528583 0 0)
(0.0053323 0 0)
(0.00541116 0 0)
(0.00535988 0 0)
(0.00526609 0 0)
(0.00526475 0 0)
(0.00532838 0 0)
(0.00532836 0 0)
(0.00528006 0 0)
(0.00532997 0 0)
(0.0052989 0 0)
(0.00521979 0 0)
(0.00528099 0 0)
(0.00528285 0 0)
(0.00526792 0 0)
(0.00526113 0 0)
(0.0051983 0 0)
(0.00518361 0 0)
(0.00516799 0 0)
(0.00518417 0 0)
(0.00520095 0 0)
(0.00518635 0 0)
(0.00521682 0 0)
(0.0052158 0 0)
(0.00523596 0 0)
(0.0052632 0 0)
(0.0052011 0 0)
(0.00513819 0 0)
(0.00512239 0 0)
(0.00512624 0 0)
(0.00512626 0 0)
(0.00514246 0 0)
(0.00515531 0 0)
(0.00517327 0 0)
(0.00515675 0 0)
(0.00507785 0 0)
(0.00509644 0 0)
(0.00510987 0 0)
(0.00506805 0 0)
(0.00507156 0 0)
)
;

boundaryField
{
    inlet
    {
        type            fixedValue;
        value           uniform (0 0 0);
    }
    outlet
    {
        type            zeroGradient;
    }
    yzfaces
    {
        type            empty;
    }
}


// ************************************************************************* //
