/*--------------------------------*- C++ -*----------------------------------*\
| =========                 |                                                 |
| \\      /  F ield         | foam-extend: Open Source CFD                    |
|  \\    /   O peration     | Version:     5.0                                |
|   \\  /    A nd           | Web:         http://www.foam-extend.org         |
|    \\/     M anipulation  |                                                 |
\*---------------------------------------------------------------------------*/
FoamFile
{
    version     2.0;
    format      ascii;
    class       volScalarField;
    location    "4";
    object      alpha.gas;
}
// * * * * * * * * * * * * * * * * * * * * * * * * * * * * * * * * * * * * * //

dimensions      [0 0 0 0 0 0 0];

internalField   nonuniform List<scalar> 
100
(
0.0816122
0.0798432
0.0782175
0.0764141
0.0749623
0.0732661
0.0715133
0.070139
0.0686684
0.0673576
0.0660566
0.0647871
0.0635443
0.0623725
0.0611324
0.060102
0.0589838
0.0578366
0.0568084
0.0557833
0.0548771
0.0540283
0.0532101
0.0524101
0.0516488
0.0507422
0.0501436
0.0493585
0.048624
0.0480391
0.047346
0.0465732
0.0460157
0.0454184
0.044838
0.0442277
0.0436994
0.0431549
0.0426297
0.0421443
0.0416456
0.041152
0.0407051
0.0401996
0.0397496
0.0392893
0.0388645
0.0384339
0.0380214
0.0376188
0.0371672
0.0367349
0.0363658
0.0359431
0.0355838
0.0351521
0.0348115
0.034394
0.0340409
0.0336685
0.0332634
0.032922
0.03258
0.0321973
0.03185
0.0314734
0.0311436
0.0307865
0.0304596
0.030117
0.0297403
0.0293669
0.0290287
0.02864
0.0282631
0.027922
0.0275235
0.0271559
0.0267648
0.0263872
0.0259389
0.025495
0.0250241
0.0245535
0.0240354
0.0234834
0.0228587
0.0222189
0.0214972
0.0206586
0.0197293
0.0186332
0.0173252
0.0157351
0.0137216
0.0111758
0.00797104
0.00429509
0.0012508
9.98992e-05
)
;

boundaryField
{
    inlet
    {
        type            fixedValue;
        value           uniform 0.2;
    }
    outlet
    {
        type            zeroGradient;
    }
    yzfaces
    {
        type            empty;
    }
}


// ************************************************************************* //
