/*--------------------------------*- C++ -*----------------------------------*\
| =========                 |                                                 |
| \\      /  F ield         | foam-extend: Open Source CFD                    |
|  \\    /   O peration     | Version:     5.0                                |
|   \\  /    A nd           | Web:         http://www.foam-extend.org         |
|    \\/     M anipulation  |                                                 |
\*---------------------------------------------------------------------------*/
FoamFile
{
    version     2.0;
    format      ascii;
    class       volScalarField;
    location    "4";
    object      CO2.gas;
}
// * * * * * * * * * * * * * * * * * * * * * * * * * * * * * * * * * * * * * //

dimensions      [0 0 0 0 0 0 0];

internalField   nonuniform List<scalar> 
100
(
0.0816379
0.0798505
0.0782518
0.0764011
0.0750551
0.0732811
0.071429
0.0701224
0.0686249
0.0673462
0.0660254
0.0647742
0.0635313
0.0623801
0.0611066
0.0601233
0.0589879
0.0578048
0.0567777
0.0557504
0.0548562
0.0540352
0.0532286
0.0524313
0.0516592
0.0506998
0.0501663
0.0493637
0.0486307
0.0480728
0.0473669
0.0465552
0.0460228
0.0454195
0.0448385
0.0442229
0.0436999
0.0431561
0.0426313
0.0421515
0.041655
0.0411578
0.0407125
0.0401978
0.0397542
0.0392914
0.0388698
0.0384388
0.0380262
0.0376285
0.0371655
0.0367263
0.0363719
0.0359432
0.0355908
0.035145
0.034816
0.0343873
0.0340421
0.0336711
0.0332593
0.032922
0.0325837
0.0321979
0.0318551
0.0314727
0.031147
0.0307885
0.0304666
0.0301247
0.0297391
0.0293629
0.0290318
0.0286335
0.0282564
0.0279245
0.0275193
0.027158
0.026766
0.0263933
0.0259377
0.0254954
0.0250225
0.0245569
0.024037
0.0234855
0.0228563
0.0222212
0.0214994
0.0206566
0.0197304
0.018634
0.0173255
0.0157367
0.0137202
0.0111762
0.007972
0.00429497
0.00125081
9.99074e-05
)
;

boundaryField
{
    inlet
    {
        type            fixedValue;
        value           uniform 0.2;
    }
    outlet
    {
        type            zeroGradient;
    }
    yzfaces
    {
        type            empty;
    }
}


// ************************************************************************* //
