/*--------------------------------*- C++ -*----------------------------------*\
| =========                 |                                                 |
| \\      /  F ield         | foam-extend: Open Source CFD                    |
|  \\    /   O peration     | Version:     5.0                                |
|   \\  /    A nd           | Web:         http://www.foam-extend.org         |
|    \\/     M anipulation  |                                                 |
\*---------------------------------------------------------------------------*/
FoamFile
{
    version     2.0;
    format      ascii;
    class       surfaceScalarField;
    location    "4";
    object      phi;
}
// * * * * * * * * * * * * * * * * * * * * * * * * * * * * * * * * * * * * * //

dimensions      [0 3 -1 0 0 0 0];

internalField   nonuniform List<scalar> 
99
(
1.22484e-06
1.22428e-06
1.21965e-06
1.224e-06
1.20959e-06
1.20964e-06
1.22113e-06
1.21464e-06
1.22024e-06
1.21963e-06
1.22263e-06
1.22048e-06
1.22387e-06
1.22178e-06
1.22803e-06
1.22402e-06
1.2229e-06
1.22738e-06
1.23074e-06
1.23219e-06
1.23552e-06
1.23403e-06
1.2301e-06
1.2285e-06
1.22647e-06
1.23863e-06
1.23012e-06
1.23201e-06
1.23345e-06
1.2268e-06
1.22273e-06
1.2303e-06
1.2258e-06
1.22687e-06
1.22601e-06
1.22679e-06
1.22657e-06
1.22605e-06
1.22618e-06
1.22508e-06
1.22355e-06
1.22401e-06
1.22236e-06
1.22513e-06
1.22387e-06
1.22492e-06
1.22351e-06
1.22492e-06
1.22505e-06
1.22265e-06
1.2224e-06
1.22669e-06
1.22372e-06
1.22526e-06
1.2209e-06
1.22476e-06
1.2213e-06
1.22488e-06
1.22403e-06
1.22268e-06
1.22421e-06
1.22416e-06
1.2227e-06
1.22385e-06
1.2211e-06
1.22358e-06
1.22195e-06
1.22295e-06
1.22086e-06
1.21839e-06
1.22023e-06
1.22226e-06
1.21869e-06
1.22265e-06
1.22475e-06
1.22054e-06
1.22512e-06
1.22281e-06
1.22315e-06
1.21946e-06
1.22084e-06
1.22075e-06
1.22217e-06
1.22003e-06
1.2205e-06
1.21894e-06
1.22157e-06
1.21966e-06
1.21842e-06
1.22104e-06
1.2196e-06
1.21903e-06
1.21979e-06
1.21756e-06
1.21995e-06
1.21954e-06
1.21796e-06
1.21906e-06
1.21916e-06
)
;

boundaryField
{
    inlet
    {
        type            calculated;
        value           uniform -1.225e-06;
    }
    outlet
    {
        type            calculated;
        value           uniform 1.21819e-06;
    }
    yzfaces
    {
        type            empty;
    }
}


// ************************************************************************* //
