/*--------------------------------*- C++ -*----------------------------------*\
| =========                 |                                                 |
| \\      /  F ield         | foam-extend: Open Source CFD                    |
|  \\    /   O peration     | Version:     5.0                                |
|   \\  /    A nd           | Web:         http://www.foam-extend.org         |
|    \\/     M anipulation  |                                                 |
\*---------------------------------------------------------------------------*/
FoamFile
{
    version     2.0;
    format      ascii;
    class       volVectorField;
    location    "4";
    object      U.gas;
}
// * * * * * * * * * * * * * * * * * * * * * * * * * * * * * * * * * * * * * //

dimensions      [0 1 -1 0 0 0 0];

internalField   nonuniform List<vector> 
100
(
(0.0122355 0 0)
(0.0124535 0 0)
(0.0126589 0 0)
(0.012899 0 0)
(0.0130474 0 0)
(0.0132725 0 0)
(0.0135677 0 0)
(0.0137747 0 0)
(0.0140075 0 0)
(0.0142333 0 0)
(0.0144701 0 0)
(0.0146946 0 0)
(0.0149157 0 0)
(0.0151426 0 0)
(0.0153854 0 0)
(0.0155751 0 0)
(0.0157884 0 0)
(0.016029 0 0)
(0.0162676 0 0)
(0.0164944 0 0)
(0.0166842 0 0)
(0.0168637 0 0)
(0.0169976 0 0)
(0.0171262 0 0)
(0.0172904 0 0)
(0.0175407 0 0)
(0.0176609 0 0)
(0.0178332 0 0)
(0.0179837 0 0)
(0.018065 0 0)
(0.0181938 0 0)
(0.0183764 0 0)
(0.0184756 0 0)
(0.0185979 0 0)
(0.0187356 0 0)
(0.018871 0 0)
(0.0189784 0 0)
(0.0191021 0 0)
(0.0192068 0 0)
(0.0193025 0 0)
(0.0194017 0 0)
(0.0194947 0 0)
(0.0195849 0 0)
(0.019718 0 0)
(0.0198154 0 0)
(0.0199137 0 0)
(0.0199937 0 0)
(0.0200882 0 0)
(0.0201832 0 0)
(0.0202593 0 0)
(0.0203479 0 0)
(0.0204463 0 0)
(0.0205237 0 0)
(0.0206111 0 0)
(0.0206495 0 0)
(0.0207376 0 0)
(0.0207855 0 0)
(0.0208835 0 0)
(0.0209492 0 0)
(0.0210172 0 0)
(0.0210877 0 0)
(0.0211286 0 0)
(0.0211858 0 0)
(0.0212558 0 0)
(0.021286 0 0)
(0.0213435 0 0)
(0.0213786 0 0)
(0.0214308 0 0)
(0.0214543 0 0)
(0.0214738 0 0)
(0.0215267 0 0)
(0.0215868 0 0)
(0.0216017 0 0)
(0.0216634 0 0)
(0.0217268 0 0)
(0.0217287 0 0)
(0.0217825 0 0)
(0.0218077 0 0)
(0.0218175 0 0)
(0.021806 0 0)
(0.0218327 0 0)
(0.0218451 0 0)
(0.0218683 0 0)
(0.0218555 0 0)
(0.0218518 0 0)
(0.0218382 0 0)
(0.0218372 0 0)
(0.02179 0 0)
(0.0217377 0 0)
(0.0216914 0 0)
(0.0215831 0 0)
(0.0214293 0 0)
(0.0211971 0 0)
(0.0208157 0 0)
(0.0202059 0 0)
(0.0191208 0 0)
(0.0172505 0 0)
(0.0145806 0 0)
(0.0123201 0 0)
(0.0115787 0 0)
)
;

boundaryField
{
    inlet
    {
        type            fixedValue;
        value           uniform (0.005 0 0);
    }
    outlet
    {
        type            zeroGradient;
    }
    yzfaces
    {
        type            empty;
    }
}


// ************************************************************************* //
