/*--------------------------------*- C++ -*----------------------------------*\
| =========                 |                                                 |
| \\      /  F ield         | foam-extend: Open Source CFD                    |
|  \\    /   O peration     | Version:     5.0                                |
|   \\  /    A nd           | Web:         http://www.foam-extend.org         |
|    \\/     M anipulation  |                                                 |
\*---------------------------------------------------------------------------*/
FoamFile
{
    version     2.0;
    format      ascii;
    class       volVectorField;
    location    "4";
    object      U.water;
}
// * * * * * * * * * * * * * * * * * * * * * * * * * * * * * * * * * * * * * //

dimensions      [0 1 -1 0 0 0 0];

internalField   nonuniform List<vector> 
100
(
(1.15955e-05 0 0)
(4.41935e-05 0 0)
(6.0564e-05 0 0)
(9.50385e-05 0 0)
(0.00012192 0 0)
(0.00011848 0 0)
(0.000170298 0 0)
(0.000215954 0 0)
(0.000243318 0 0)
(0.000280024 0 0)
(0.000306047 0 0)
(0.000334039 0 0)
(0.000365612 0 0)
(0.000390469 0 0)
(0.000427555 0 0)
(0.000462781 0 0)
(0.000478514 0 0)
(0.000513858 0 0)
(0.000552969 0 0)
(0.000590543 0 0)
(0.000631526 0 0)
(0.000663574 0 0)
(0.000690258 0 0)
(0.000717726 0 0)
(0.000734772 0 0)
(0.000777939 0 0)
(0.000814591 0 0)
(0.00082801 0 0)
(0.000871125 0 0)
(0.000897342 0 0)
(0.000906674 0 0)
(0.000947616 0 0)
(0.000989182 0 0)
(0.00101179 0 0)
(0.00103833 0 0)
(0.00106902 0 0)
(0.00110061 0 0)
(0.00112672 0 0)
(0.00115734 0 0)
(0.00118477 0 0)
(0.00120897 0 0)
(0.00123867 0 0)
(0.00126378 0 0)
(0.0012911 0 0)
(0.00132253 0 0)
(0.00135096 0 0)
(0.00137968 0 0)
(0.0014068 0 0)
(0.00143596 0 0)
(0.00145911 0 0)
(0.00148438 0 0)
(0.00152229 0 0)
(0.00155106 0 0)
(0.00157724 0 0)
(0.00160353 0 0)
(0.00163338 0 0)
(0.00166364 0 0)
(0.00169179 0 0)
(0.00172587 0 0)
(0.00174976 0 0)
(0.00178292 0 0)
(0.00181795 0 0)
(0.00184258 0 0)
(0.0018725 0 0)
(0.00190293 0 0)
(0.00193486 0 0)
(0.00196832 0 0)
(0.0019983 0 0)
(0.00202892 0 0)
(0.0020537 0 0)
(0.00208591 0 0)
(0.00212737 0 0)
(0.00215965 0 0)
(0.00219435 0 0)
(0.00224106 0 0)
(0.00227438 0 0)
(0.00231162 0 0)
(0.00235443 0 0)
(0.00239216 0 0)
(0.00242831 0 0)
(0.00246884 0 0)
(0.00251928 0 0)
(0.00257106 0 0)
(0.00262292 0 0)
(0.0026762 0 0)
(0.00273545 0 0)
(0.00280541 0 0)
(0.00288147 0 0)
(0.00295703 0 0)
(0.00305332 0 0)
(0.00316392 0 0)
(0.00328651 0 0)
(0.00343885 0 0)
(0.00362142 0 0)
(0.00385255 0 0)
(0.00414153 0 0)
(0.00446491 0 0)
(0.00476266 0 0)
(0.00492973 0 0)
(0.00497089 0 0)
)
;

boundaryField
{
    inlet
    {
        type            fixedValue;
        value           uniform (0 0 0);
    }
    outlet
    {
        type            zeroGradient;
    }
    yzfaces
    {
        type            empty;
    }
}


// ************************************************************************* //
