/*--------------------------------*- C++ -*----------------------------------*\
| =========                 |                                                 |
| \\      /  F ield         | foam-extend: Open Source CFD                    |
|  \\    /   O peration     | Version:     5.0                                |
|   \\  /    A nd           | Web:         http://www.foam-extend.org         |
|    \\/     M anipulation  |                                                 |
\*---------------------------------------------------------------------------*/
FoamFile
{
    version     2.0;
    format      ascii;
    class       volScalarField;
    location    "2";
    object      alpha.water;
}
// * * * * * * * * * * * * * * * * * * * * * * * * * * * * * * * * * * * * * //

dimensions      [0 0 0 0 0 0 0];

internalField   nonuniform List<scalar> 
100
(
0.199352
0.198912
0.198438
0.197858
0.197014
0.195409
0.191138
0.178019
0.152464
0.123833
0.097574
0.074411
0.0555892
0.0404475
0.0292781
0.0210777
0.015909
0.0131366
0.0114036
0.0106803
0.0103483
0.0101232
0.0102393
0.0100801
0.0101112
0.0100022
0.0100613
0.010005
0.00999906
0.00998131
0.00989532
0.00985894
0.0098815
0.00991612
0.00998324
0.00995812
0.0099201
0.00996008
0.00988165
0.00992961
0.00995404
0.00993685
0.0100376
0.00996658
0.00993453
0.0100368
0.0100679
0.0100687
0.0100807
0.0100788
0.00997186
0.0100818
0.00995362
0.00992004
0.00998909
0.0100818
0.0100739
0.0100294
0.00999654
0.0100402
0.00998607
0.0100062
0.0100324
0.0100151
0.00998794
0.00992064
0.00996708
0.00984703
0.00995059
0.00992856
0.00996141
0.00999441
0.0100186
0.0100005
0.00998141
0.00991221
0.00984137
0.00987832
0.00989283
0.00987392
0.0099181
0.0099484
0.0100013
0.00990383
0.010058
0.0100511
0.0100511
0.0099094
0.0099339
0.010006
0.0099057
0.00993953
0.00999074
0.0100891
0.00995245
0.0101134
0.010115
0.0102572
0.0102841
0.0103919
)
;

boundaryField
{
    inlet
    {
        type            fixedValue;
        value           uniform 0.2;
    }
    outlet
    {
        type            zeroGradient;
    }
    yzfaces
    {
        type            empty;
    }
}


// ************************************************************************* //
