/*--------------------------------*- C++ -*----------------------------------*\
| =========                 |                                                 |
| \\      /  F ield         | foam-extend: Open Source CFD                    |
|  \\    /   O peration     | Version:     5.0                                |
|   \\  /    A nd           | Web:         http://www.foam-extend.org         |
|    \\/     M anipulation  |                                                 |
\*---------------------------------------------------------------------------*/
FoamFile
{
    version     2.0;
    format      ascii;
    class       surfaceScalarField;
    location    "7";
    object      phi;
}
// * * * * * * * * * * * * * * * * * * * * * * * * * * * * * * * * * * * * * //

dimensions      [0 3 -1 0 0 0 0];

internalField   nonuniform List<scalar> 
99
(
1.22393e-06
1.22521e-06
1.22566e-06
1.22616e-06
1.22366e-06
1.22398e-06
1.22594e-06
1.22373e-06
1.22713e-06
1.22379e-06
1.22537e-06
1.22346e-06
1.22415e-06
1.22251e-06
1.22418e-06
1.22048e-06
1.22315e-06
1.2209e-06
1.22341e-06
1.2222e-06
1.22245e-06
1.22232e-06
1.22397e-06
1.22052e-06
1.2232e-06
1.22386e-06
1.22265e-06
1.22289e-06
1.22194e-06
1.22393e-06
1.22481e-06
1.2213e-06
1.22431e-06
1.22403e-06
1.21668e-06
1.22517e-06
1.22343e-06
1.24169e-06
1.22107e-06
1.2397e-06
1.22201e-06
1.23778e-06
1.21374e-06
1.1799e-06
1.19417e-06
1.18936e-06
1.18041e-06
1.13331e-06
1.19305e-06
1.15471e-06
1.15575e-06
1.16906e-06
1.1693e-06
1.20713e-06
1.17729e-06
1.19193e-06
1.19987e-06
1.19941e-06
1.21445e-06
1.23008e-06
1.229e-06
1.25144e-06
1.26721e-06
1.22922e-06
1.22215e-06
1.22948e-06
1.25193e-06
1.22943e-06
1.22885e-06
1.25185e-06
1.21526e-06
1.21487e-06
1.24445e-06
1.2142e-06
1.2377e-06
1.21499e-06
1.20737e-06
1.20733e-06
1.19926e-06
1.21379e-06
1.20741e-06
1.20669e-06
1.22162e-06
1.20622e-06
1.23079e-06
1.22233e-06
1.20008e-06
1.19164e-06
1.1913e-06
1.1925e-06
1.19206e-06
1.19919e-06
1.19907e-06
1.20731e-06
1.19218e-06
1.16875e-06
1.19963e-06
1.17652e-06
1.17624e-06
)
;

boundaryField
{
    inlet
    {
        type            calculated;
        value           uniform -1.225e-06;
    }
    outlet
    {
        type            calculated;
        value           uniform 1.17802e-06;
    }
    yzfaces
    {
        type            empty;
    }
}


// ************************************************************************* //
