/*--------------------------------*- C++ -*----------------------------------*\
| =========                 |                                                 |
| \\      /  F ield         | foam-extend: Open Source CFD                    |
|  \\    /   O peration     | Version:     5.0                                |
|   \\  /    A nd           | Web:         http://www.foam-extend.org         |
|    \\/     M anipulation  |                                                 |
\*---------------------------------------------------------------------------*/
FoamFile
{
    version     2.0;
    format      ascii;
    class       volScalarField;
    location    "7";
    object      XCO2;
}
// * * * * * * * * * * * * * * * * * * * * * * * * * * * * * * * * * * * * * //

dimensions      [0 0 0 0 0 0 0];

internalField   nonuniform List<scalar> 
100
(
0.000567504
0.00181335
-0.00202537
0.00235383
-0.00333571
0.00265296
-0.00499042
0.00524487
-0.00799852
0.00830515
-0.00892797
0.0076357
-0.00515447
0.002597
0.000711655
-0.0028795
0.00517783
-0.00447973
0.00359971
-0.00227285
0.0013376
-0.00297674
0.00580999
-0.0060436
0.00944261
-0.00944763
0.00529703
-0.0150556
0.000764349
-0.00502339
0.0218014
0.0314309
0.079872
0.112177
0.176029
0.242796
0.30078
0.37032
0.42481
0.453059
0.502503
0.467572
0.53368
0.469611
0.466755
0.560452
0.472921
0.564429
0.468612
0.496711
0.492454
0.590025
0.460228
0.488085
0.528202
0.463531
0.495635
0.4506
0.463181
0.511003
0.457209
0.551474
0.47288
0.465202
0.520257
0.508003
0.522613
0.455771
0.559099
0.485414
0.538757
0.422517
0.553193
0.504065
0.443668
0.538833
0.526724
0.498733
0.524012
0.553174
0.479026
0.506509
0.47584
0.472949
0.467387
0.505418
0.530608
0.440656
0.60093
0.449613
0.555409
0.481746
0.460975
0.532354
0.501207
0.490619
0.539225
0.470555
0.624338
0.249806
)
;

boundaryField
{
    inlet
    {
        type            fixedValue;
        value           uniform 0;
    }
    outlet
    {
        type            zeroGradient;
    }
    yzfaces
    {
        type            empty;
    }
}


// ************************************************************************* //
