/*--------------------------------*- C++ -*----------------------------------*\
| =========                 |                                                 |
| \\      /  F ield         | foam-extend: Open Source CFD                    |
|  \\    /   O peration     | Version:     5.0                                |
|   \\  /    A nd           | Web:         http://www.foam-extend.org         |
|    \\/     M anipulation  |                                                 |
\*---------------------------------------------------------------------------*/
FoamFile
{
    version     2.0;
    format      ascii;
    class       volVectorField;
    location    "3";
    object      U.water;
}
// * * * * * * * * * * * * * * * * * * * * * * * * * * * * * * * * * * * * * //

dimensions      [0 1 -1 0 0 0 0];

internalField   nonuniform List<vector> 
100
(
(1.42313e-05 0 0)
(5.40183e-05 0 0)
(7.96592e-05 0 0)
(0.00011255 0 0)
(0.000157473 0 0)
(0.000209212 0 0)
(0.000249203 0 0)
(0.000287326 0 0)
(0.000335241 0 0)
(0.000355151 0 0)
(0.000402314 0 0)
(0.000451709 0 0)
(0.000484996 0 0)
(0.000531282 0 0)
(0.000563728 0 0)
(0.000615518 0 0)
(0.000661264 0 0)
(0.00067646 0 0)
(0.000726597 0 0)
(0.000778353 0 0)
(0.000821454 0 0)
(0.000856249 0 0)
(0.000887198 0 0)
(0.000938841 0 0)
(0.000985471 0 0)
(0.00101582 0 0)
(0.00104695 0 0)
(0.00108358 0 0)
(0.00112493 0 0)
(0.00116962 0 0)
(0.00120439 0 0)
(0.00123962 0 0)
(0.00128062 0 0)
(0.00131715 0 0)
(0.0013555 0 0)
(0.00139495 0 0)
(0.00143329 0 0)
(0.0014715 0 0)
(0.00150672 0 0)
(0.00154596 0 0)
(0.00158613 0 0)
(0.00162646 0 0)
(0.00166929 0 0)
(0.00171237 0 0)
(0.00174648 0 0)
(0.00178912 0 0)
(0.00182989 0 0)
(0.00187344 0 0)
(0.00191821 0 0)
(0.00195628 0 0)
(0.00200739 0 0)
(0.00205066 0 0)
(0.00209307 0 0)
(0.00214355 0 0)
(0.00218767 0 0)
(0.0022311 0 0)
(0.00228569 0 0)
(0.00233886 0 0)
(0.00239083 0 0)
(0.00244272 0 0)
(0.00250092 0 0)
(0.00256485 0 0)
(0.00262839 0 0)
(0.00270165 0 0)
(0.00278141 0 0)
(0.00286578 0 0)
(0.00296172 0 0)
(0.00307137 0 0)
(0.0031951 0 0)
(0.0033403 0 0)
(0.00351802 0 0)
(0.00372955 0 0)
(0.00398803 0 0)
(0.00430906 0 0)
(0.00465207 0 0)
(0.00491364 0 0)
(0.00502886 0 0)
(0.00504772 0 0)
(0.00504714 0 0)
(0.00505195 0 0)
(0.00505242 0 0)
(0.00505385 0 0)
(0.00505433 0 0)
(0.00505433 0 0)
(0.00505528 0 0)
(0.0050548 0 0)
(0.00505433 0 0)
(0.00505433 0 0)
(0.00505433 0 0)
(0.00505433 0 0)
(0.00505528 0 0)
(0.00505623 0 0)
(0.00505528 0 0)
(0.00505528 0 0)
(0.00505528 0 0)
(0.00505575 0 0)
(0.00505528 0 0)
(0.00505433 0 0)
(0.00505433 0 0)
(0.0050567 0 0)
)
;

boundaryField
{
    inlet
    {
        type            fixedValue;
        value           uniform (0 0 0);
    }
    outlet
    {
        type            zeroGradient;
    }
    yzfaces
    {
        type            empty;
    }
}


// ************************************************************************* //
