/*--------------------------------*- C++ -*----------------------------------*\
| =========                 |                                                 |
| \\      /  F ield         | foam-extend: Open Source CFD                    |
|  \\    /   O peration     | Version:     5.0                                |
|   \\  /    A nd           | Web:         http://www.foam-extend.org         |
|    \\/     M anipulation  |                                                 |
\*---------------------------------------------------------------------------*/
FoamFile
{
    version     2.0;
    format      ascii;
    class       volScalarField;
    location    "8";
    object      YCO2;
}
// * * * * * * * * * * * * * * * * * * * * * * * * * * * * * * * * * * * * * //

dimensions      [0 0 0 0 0 0 0];

internalField   nonuniform List<scalar> 
100
(
0.0167773
-0.0198229
0.0213675
-0.0116907
-0.00321821
0.000816542
0.0073278
-0.00169861
-0.0209195
0.0402968
-0.0315125
-0.00121786
0.0320167
-0.0443217
0.0408611
-0.0324878
0.0266451
-0.0223161
0.0168375
-0.0127043
0.0136977
-0.0213342
0.0342057
-0.047556
0.0555235
-0.052483
0.0392003
-0.0242381
0.0144045
-0.00964372
0.0055689
0.000741537
-0.00597862
0.00448982
0.00381974
-0.0130106
0.0182348
-0.0183229
0.0125963
-0.00882192
0.0148484
0.0179349
0.0639542
0.126835
0.21157
0.359095
0.478572
0.57036
0.745334
0.863829
0.860268
0.870042
0.972177
0.933192
1.00641
0.972936
0.993393
0.968694
1.01957
0.935916
0.982804
0.950526
1.00099
0.993187
1.07916
0.940334
1.11713
0.960126
1.11182
0.974729
1.09724
0.954763
1.13715
0.897521
1.09462
0.968513
0.975553
1.00704
0.953403
1.02788
0.980345
1.00912
0.962893
0.986516
1.01234
0.977365
1.0049
0.920528
1.02884
0.968264
1.04571
0.947948
1.07463
0.992088
1.00428
1.04209
1.02894
1.00622
1.04723
1.03575
)
;

boundaryField
{
    inlet
    {
        type            fixedValue;
        value           uniform 0;
    }
    outlet
    {
        type            zeroGradient;
    }
    yzfaces
    {
        type            empty;
    }
}


// ************************************************************************* //
