/*--------------------------------*- C++ -*----------------------------------*\
| =========                 |                                                 |
| \\      /  F ield         | foam-extend: Open Source CFD                    |
|  \\    /   O peration     | Version:     5.0                                |
|   \\  /    A nd           | Web:         http://www.foam-extend.org         |
|    \\/     M anipulation  |                                                 |
\*---------------------------------------------------------------------------*/
FoamFile
{
    version     2.0;
    format      ascii;
    class       volScalarField;
    location    "1";
    object      YH2O;
}
// * * * * * * * * * * * * * * * * * * * * * * * * * * * * * * * * * * * * * //

dimensions      [0 0 0 0 0 0 0];

internalField   nonuniform List<scalar> 
100
(
0.989645
1.01299
0.949516
0.938839
0.809527
0.730854
0.587616
0.461919
0.306794
0.205269
0.0789405
0.0551639
-0.0141104
0.0630678
0.00638349
0.0396292
0.00380797
0.00978446
0.0212472
-0.0187401
0.0308251
-0.0121696
-0.0140983
0.0235324
-0.00911651
0.0151034
0.0239586
-0.0282768
0.0310804
-0.00457371
-0.00502365
0.000335037
-0.0312457
0.0223871
-0.00707744
-0.0101626
-0.0079296
-0.0392875
0.0320677
-0.0235729
0.00275296
0.000420193
-0.010964
-0.00776442
-0.0409487
0.00219679
-0.0601534
0.00695742
-0.0302448
0.0244715
-0.00196422
-0.0055368
-0.00416357
-0.0386777
-0.025006
-0.000372827
-0.0146468
0.0439665
0.0390217
-0.0583223
0.0416911
0.00469787
0.00340481
-0.0227374
0.0133588
0.00648706
-0.0127069
-0.020231
0.00741179
-0.0319211
0.00199755
-0.00939022
-0.00237435
0.00222837
-0.0225394
0.0284402
-0.0332094
0.0145532
-0.0269399
0.0118713
-0.00207545
-0.0114747
0.0216706
-0.0520276
0.0407304
-0.00411494
-0.0106839
0.0122691
0.0383092
-0.0247191
-0.0108598
-0.0153067
-0.0542973
0.0302144
-0.0209913
0.00294474
0.00440742
-0.0394885
-0.00515347
0.00778945
)
;

boundaryField
{
    inlet
    {
        type            calculated;
        value           uniform 1;
    }
    outlet
    {
        type            calculated;
        value           uniform 0.00778945;
    }
    yzfaces
    {
        type            empty;
    }
}


// ************************************************************************* //
