/*--------------------------------*- C++ -*----------------------------------*\
| =========                 |                                                 |
| \\      /  F ield         | foam-extend: Open Source CFD                    |
|  \\    /   O peration     | Version:     5.0                                |
|   \\  /    A nd           | Web:         http://www.foam-extend.org         |
|    \\/     M anipulation  |                                                 |
\*---------------------------------------------------------------------------*/
FoamFile
{
    version     2.0;
    format      ascii;
    class       surfaceScalarField;
    location    "1";
    object      phi;
}
// * * * * * * * * * * * * * * * * * * * * * * * * * * * * * * * * * * * * * //

dimensions      [0 3 -1 0 0 0 0];

internalField   nonuniform List<scalar> 
99
(
1.2266e-06
1.22267e-06
1.22227e-06
1.22297e-06
1.22659e-06
1.22402e-06
1.22062e-06
1.21818e-06
1.21651e-06
1.21755e-06
1.21894e-06
1.22191e-06
1.21931e-06
1.22023e-06
1.2186e-06
1.21768e-06
1.2175e-06
1.22174e-06
1.22052e-06
1.22268e-06
1.22247e-06
1.2231e-06
1.2232e-06
1.22016e-06
1.22127e-06
1.22255e-06
1.22364e-06
1.22114e-06
1.22204e-06
1.22145e-06
1.22116e-06
1.22094e-06
1.22236e-06
1.22096e-06
1.22143e-06
1.22166e-06
1.2219e-06
1.22213e-06
1.22213e-06
1.22236e-06
1.22236e-06
1.22306e-06
1.22306e-06
1.22306e-06
1.22306e-06
1.22259e-06
1.22283e-06
1.22283e-06
1.22329e-06
1.22329e-06
1.22399e-06
1.22376e-06
1.22353e-06
1.22399e-06
1.22422e-06
1.22469e-06
1.22446e-06
1.22515e-06
1.22515e-06
1.22562e-06
1.22609e-06
1.22609e-06
1.22632e-06
1.22678e-06
1.22678e-06
1.22725e-06
1.22725e-06
1.22748e-06
1.22795e-06
1.22841e-06
1.22865e-06
1.22865e-06
1.22911e-06
1.22958e-06
1.22935e-06
1.22981e-06
1.23004e-06
1.23051e-06
1.23051e-06
1.23074e-06
1.23074e-06
1.23121e-06
1.23144e-06
1.23167e-06
1.23237e-06
1.23214e-06
1.23237e-06
1.23214e-06
1.23284e-06
1.23284e-06
1.2333e-06
1.23377e-06
1.23377e-06
1.23447e-06
1.2347e-06
1.23517e-06
1.2347e-06
1.23517e-06
1.23587e-06
)
;

boundaryField
{
    inlet
    {
        type            calculated;
        value           uniform -1.225e-06;
    }
    outlet
    {
        type            calculated;
        value           uniform 1.2354e-06;
    }
    yzfaces
    {
        type            empty;
    }
}


// ************************************************************************* //
