/*--------------------------------*- C++ -*----------------------------------*\
| =========                 |                                                 |
| \\      /  F ield         | foam-extend: Open Source CFD                    |
|  \\    /   O peration     | Version:     5.0                                |
|   \\  /    A nd           | Web:         http://www.foam-extend.org         |
|    \\/     M anipulation  |                                                 |
\*---------------------------------------------------------------------------*/
FoamFile
{
    version     2.0;
    format      ascii;
    class       volVectorField;
    location    "1";
    object      U.water;
}
// * * * * * * * * * * * * * * * * * * * * * * * * * * * * * * * * * * * * * //

dimensions      [0 1 -1 0 0 0 0];

internalField   nonuniform List<vector> 
100
(
(5.55508e-05 0 0)
(0.000149882 0 0)
(0.000239758 0 0)
(0.000348269 0 0)
(0.000472864 0 0)
(0.000582622 0 0)
(0.000682892 0 0)
(0.000794364 0 0)
(0.000909721 0 0)
(0.00102881 0 0)
(0.00114787 0 0)
(0.00127018 0 0)
(0.00138781 0 0)
(0.00150614 0 0)
(0.00162815 0 0)
(0.00174986 0 0)
(0.00187486 0 0)
(0.00201142 0 0)
(0.0021509 0 0)
(0.0022939 0 0)
(0.00244923 0 0)
(0.00261415 0 0)
(0.00279657 0 0)
(0.00299415 0 0)
(0.00322473 0 0)
(0.00350496 0 0)
(0.0038372 0 0)
(0.00421552 0 0)
(0.00459937 0 0)
(0.0048716 0 0)
(0.00497029 0 0)
(0.00498356 0 0)
(0.00498632 0 0)
(0.00498638 0 0)
(0.00498448 0 0)
(0.0049859 0 0)
(0.00498685 0 0)
(0.0049878 0 0)
(0.00498828 0 0)
(0.00498875 0 0)
(0.00498923 0 0)
(0.00499065 0 0)
(0.00499208 0 0)
(0.00499208 0 0)
(0.00499208 0 0)
(0.00499113 0 0)
(0.00499065 0 0)
(0.00499113 0 0)
(0.00499208 0 0)
(0.00499303 0 0)
(0.00499445 0 0)
(0.00499541 0 0)
(0.00499445 0 0)
(0.00499493 0 0)
(0.00499636 0 0)
(0.00499778 0 0)
(0.00499826 0 0)
(0.00499921 0 0)
(0.00500063 0 0)
(0.00500158 0 0)
(0.00500348 0 0)
(0.00500443 0 0)
(0.00500491 0 0)
(0.00500633 0 0)
(0.00500728 0 0)
(0.00500823 0 0)
(0.00500918 0 0)
(0.00500966 0 0)
(0.00501109 0 0)
(0.00501299 0 0)
(0.00501441 0 0)
(0.00501489 0 0)
(0.00501584 0 0)
(0.00501774 0 0)
(0.00501821 0 0)
(0.00501869 0 0)
(0.00502011 0 0)
(0.00502154 0 0)
(0.00502249 0 0)
(0.00502296 0 0)
(0.00502344 0 0)
(0.00502439 0 0)
(0.00502582 0 0)
(0.00502677 0 0)
(0.00502867 0 0)
(0.00502962 0 0)
(0.00502962 0 0)
(0.00502962 0 0)
(0.00503057 0 0)
(0.00503199 0 0)
(0.00503294 0 0)
(0.00503484 0 0)
(0.00503579 0 0)
(0.00503722 0 0)
(0.00503912 0 0)
(0.00504055 0 0)
(0.00504055 0 0)
(0.00504055 0 0)
(0.00504292 0 0)
(0.0050434 0 0)
)
;

boundaryField
{
    inlet
    {
        type            fixedValue;
        value           uniform (0 0 0);
    }
    outlet
    {
        type            zeroGradient;
    }
    yzfaces
    {
        type            empty;
    }
}


// ************************************************************************* //
