/*--------------------------------*- C++ -*----------------------------------*\
| =========                 |                                                 |
| \\      /  F ield         | foam-extend: Open Source CFD                    |
|  \\    /   O peration     | Version:     5.0                                |
|   \\  /    A nd           | Web:         http://www.foam-extend.org         |
|    \\/     M anipulation  |                                                 |
\*---------------------------------------------------------------------------*/
FoamFile
{
    version     2.0;
    format      ascii;
    class       volScalarField;
    location    "6";
    object      alpha.gas;
}
// * * * * * * * * * * * * * * * * * * * * * * * * * * * * * * * * * * * * * //

dimensions      [0 0 0 0 0 0 0];

internalField   nonuniform List<scalar> 
100
(
0.000129
0.00020914
0.000282766
0.000354194
0.000424901
0.000495384
0.000564737
0.000634795
0.000704389
0.000772736
0.000841753
0.000910805
0.000980743
0.00105195
0.00112307
0.00119668
0.00127032
0.00134716
0.0014267
0.00151011
0.00159626
0.00169022
0.00179247
0.00190362
0.00203543
0.0021983
0.00241566
0.00273711
0.00329021
0.00452061
0.00882067
0.0456619
0.174897
0.189939
0.189937
0.189966
0.190017
0.189963
0.19002
0.189939
0.189998
0.190019
0.189948
0.190018
0.190071
0.19002
0.189993
0.19007
0.189941
0.190037
0.190065
0.189941
0.189989
0.189968
0.189962
0.18999
0.189967
0.189964
0.189946
0.189961
0.189993
0.190089
0.189984
0.189961
0.189943
0.190041
0.189991
0.189995
0.189943
0.190066
0.190017
0.189991
0.190065
0.189938
0.189967
0.190041
0.190114
0.189968
0.189919
0.190045
0.190018
0.190043
0.189995
0.189992
0.190092
0.189988
0.190092
0.189948
0.190061
0.189937
0.189966
0.189966
0.189964
0.190041
0.190045
0.189938
0.189959
0.189967
0.189964
0.189911
)
;

boundaryField
{
    inlet
    {
        type            fixedValue;
        value           uniform 0;
    }
    outlet
    {
        type            zeroGradient;
    }
    yzfaces
    {
        type            empty;
    }
}


// ************************************************************************* //
