/*--------------------------------*- C++ -*----------------------------------*\
| =========                 |                                                 |
| \\      /  F ield         | foam-extend: Open Source CFD                    |
|  \\    /   O peration     | Version:     5.0                                |
|   \\  /    A nd           | Web:         http://www.foam-extend.org         |
|    \\/     M anipulation  |                                                 |
\*---------------------------------------------------------------------------*/
FoamFile
{
    version     2.0;
    format      ascii;
    class       volScalarField;
    location    "6";
    object      alpha.water;
}
// * * * * * * * * * * * * * * * * * * * * * * * * * * * * * * * * * * * * * //

dimensions      [0 0 0 0 0 0 0];

internalField   nonuniform List<scalar> 
100
(
0.199871
0.199791
0.199717
0.199646
0.199575
0.199505
0.199435
0.199365
0.199296
0.199227
0.199158
0.199089
0.199019
0.198948
0.198877
0.198803
0.19873
0.198653
0.198573
0.19849
0.198404
0.19831
0.198208
0.198096
0.197965
0.197802
0.197584
0.197263
0.19671
0.195479
0.191179
0.154338
0.0251027
0.0100615
0.0100632
0.0100336
0.0099835
0.0100366
0.00997999
0.0100609
0.0100024
0.00998063
0.0100522
0.00998231
0.00992855
0.00998021
0.0100068
0.00992967
0.0100586
0.00996267
0.00993465
0.0100589
0.0100106
0.0100316
0.010038
0.0100105
0.0100328
0.0100358
0.0100542
0.010039
0.0100071
0.00991114
0.0100156
0.0100387
0.0100573
0.00995922
0.0100091
0.0100047
0.0100573
0.00993442
0.00998284
0.0100086
0.00993489
0.010062
0.0100335
0.00995855
0.00988568
0.0100319
0.0100808
0.00995472
0.0099824
0.00995689
0.0100051
0.0100079
0.009908
0.0100116
0.00990802
0.010052
0.00993893
0.0100633
0.0100335
0.0100344
0.0100355
0.00995854
0.00995529
0.0100625
0.0100409
0.0100331
0.0100365
0.0100894
)
;

boundaryField
{
    inlet
    {
        type            fixedValue;
        value           uniform 0.2;
    }
    outlet
    {
        type            zeroGradient;
    }
    yzfaces
    {
        type            empty;
    }
}


// ************************************************************************* //
