/*--------------------------------*- C++ -*----------------------------------*\
| =========                 |                                                 |
| \\      /  F ield         | foam-extend: Open Source CFD                    |
|  \\    /   O peration     | Version:     5.0                                |
|   \\  /    A nd           | Web:         http://www.foam-extend.org         |
|    \\/     M anipulation  |                                                 |
\*---------------------------------------------------------------------------*/
FoamFile
{
    version     2.0;
    format      ascii;
    class       volScalarField;
    location    "6";
    object      CO2.water;
}
// * * * * * * * * * * * * * * * * * * * * * * * * * * * * * * * * * * * * * //

dimensions      [0 0 0 0 0 0 0];

internalField   nonuniform List<scalar> 
100
(
2.21771e-13
5.18601e-12
6.17065e-11
4.96389e-10
3.0381e-09
1.50922e-08
6.34767e-08
2.31887e-07
7.52718e-07
2.20412e-06
5.88456e-06
1.44895e-05
3.31963e-05
7.11444e-05
0.00014371
0.000274547
0.000499314
0.00086639
0.00144054
0.00230033
0.00354369
0.00527283
0.00759533
0.0106326
0.0144573
0.019151
0.024748
0.0312478
0.0385768
0.0465557
0.0544176
0.0526773
0.0151756
0.0100154
0.00999944
0.0100003
0.0100001
0.0100002
0.0100005
0.010001
0.0099983
0.0100014
0.00999879
0.0100017
0.00999891
0.00999858
0.00999987
0.0100001
0.010001
0.00999909
0.0100011
0.0099985
0.00999944
0.00999922
0.0100004
0.00999984
0.0100003
0.00999989
0.00999847
0.0100002
0.0100002
0.0100002
0.00999964
0.0099991
0.00999965
0.00999995
0.00999986
0.0100004
0.0100001
0.00999957
0.0100008
0.0100003
0.00999978
0.00999968
0.0100001
0.01
0.0100015
0.00999959
0.0100005
0.009999
0.0100019
0.00999846
0.0100009
0.00999951
0.00999919
0.0100007
0.0100006
0.01
0.00999929
0.0100006
0.00999991
0.00999993
0.00999935
0.0100006
0.00999976
0.0099999
0.00999965
0.00999961
0.0100004
0.00999803
)
;

boundaryField
{
    inlet
    {
        type            fixedValue;
        value           uniform 0;
    }
    outlet
    {
        type            zeroGradient;
    }
    yzfaces
    {
        type            empty;
    }
}


// ************************************************************************* //
