/*--------------------------------*- C++ -*----------------------------------*\
| =========                 |                                                 |
| \\      /  F ield         | foam-extend: Open Source CFD                    |
|  \\    /   O peration     | Version:     5.0                                |
|   \\  /    A nd           | Web:         http://www.foam-extend.org         |
|    \\/     M anipulation  |                                                 |
\*---------------------------------------------------------------------------*/
FoamFile
{
    version     2.0;
    format      ascii;
    class       surfaceScalarField;
    location    "6";
    object      phi;
}
// * * * * * * * * * * * * * * * * * * * * * * * * * * * * * * * * * * * * * //

dimensions      [0 3 -1 0 0 0 0];

internalField   nonuniform List<scalar> 
99
(
1.22494e-06
1.22471e-06
1.22478e-06
1.2247e-06
1.2246e-06
1.22543e-06
1.22568e-06
1.22574e-06
1.22546e-06
1.225e-06
1.22501e-06
1.22657e-06
1.22573e-06
1.22596e-06
1.22578e-06
1.22563e-06
1.22663e-06
1.22597e-06
1.226e-06
1.22571e-06
1.22649e-06
1.22587e-06
1.22613e-06
1.22705e-06
1.22707e-06
1.22778e-06
1.22786e-06
1.22764e-06
1.2287e-06
1.22823e-06
1.22846e-06
1.22972e-06
1.24149e-06
1.25175e-06
1.27406e-06
1.28931e-06
1.28158e-06
1.28868e-06
1.26634e-06
1.28896e-06
1.28093e-06
1.28188e-06
1.29515e-06
1.28903e-06
1.26023e-06
1.2595e-06
1.2741e-06
1.23816e-06
1.28804e-06
1.25381e-06
1.24497e-06
1.28774e-06
1.25081e-06
1.25892e-06
1.26697e-06
1.25245e-06
1.27318e-06
1.28153e-06
1.3029e-06
1.29643e-06
1.28869e-06
1.24671e-06
1.25956e-06
1.28898e-06
1.29575e-06
1.27442e-06
1.27478e-06
1.27409e-06
1.2805e-06
1.23043e-06
1.22939e-06
1.22941e-06
1.18577e-06
1.2148e-06
1.19859e-06
1.18472e-06
1.14104e-06
1.19118e-06
1.20595e-06
1.18439e-06
1.16973e-06
1.14783e-06
1.18464e-06
1.18436e-06
1.14847e-06
1.19281e-06
1.13323e-06
1.18337e-06
1.13416e-06
1.1769e-06
1.15426e-06
1.15488e-06
1.16949e-06
1.14102e-06
1.10338e-06
1.14775e-06
1.15593e-06
1.16167e-06
1.16943e-06
)
;

boundaryField
{
    inlet
    {
        type            calculated;
        value           uniform -1.225e-06;
    }
    outlet
    {
        type            calculated;
        value           uniform 1.1902e-06;
    }
    yzfaces
    {
        type            empty;
    }
}


// ************************************************************************* //
