/*--------------------------------*- C++ -*----------------------------------*\
| =========                 |                                                 |
| \\      /  F ield         | foam-extend: Open Source CFD                    |
|  \\    /   O peration     | Version:     5.0                                |
|   \\  /    A nd           | Web:         http://www.foam-extend.org         |
|    \\/     M anipulation  |                                                 |
\*---------------------------------------------------------------------------*/
FoamFile
{
    version     2.0;
    format      ascii;
    class       volScalarField;
    location    "6";
    object      S.water;
}
// * * * * * * * * * * * * * * * * * * * * * * * * * * * * * * * * * * * * * //

dimensions      [0 0 0 0 0 0 0];

internalField   nonuniform List<scalar> 
100
(
0.999355
0.998954
0.998586
0.998229
0.997875
0.997523
0.997176
0.996826
0.996478
0.996136
0.995791
0.995446
0.995096
0.99474
0.994385
0.994017
0.993648
0.993264
0.992866
0.992449
0.992019
0.991549
0.991038
0.990482
0.989823
0.989009
0.987922
0.986314
0.983549
0.977397
0.955897
0.77169
0.125514
0.0503073
0.0503158
0.0501681
0.0499175
0.0501831
0.0498999
0.0503043
0.0500121
0.0499031
0.0502608
0.0499115
0.0496427
0.0499011
0.0500341
0.0496484
0.0502929
0.0498133
0.0496732
0.0502943
0.050053
0.0501582
0.0501898
0.0500523
0.0501639
0.050179
0.0502708
0.0501948
0.0500353
0.0495557
0.050078
0.0501936
0.0502863
0.0497961
0.0500454
0.0500233
0.0502865
0.0496721
0.0499142
0.0500428
0.0496745
0.0503102
0.0501675
0.0497928
0.0494284
0.0501595
0.0504041
0.0497736
0.049912
0.0497844
0.0500256
0.0500396
0.04954
0.0500582
0.0495401
0.05026
0.0496946
0.0503165
0.0501675
0.0501719
0.0501777
0.0497927
0.0497764
0.0503124
0.0502047
0.0501654
0.0501823
0.0504468
)
;

boundaryField
{
    inlet
    {
        type            calculated;
        value           uniform 1;
    }
    outlet
    {
        type            calculated;
        value           uniform 0.0504468;
    }
    yzfaces
    {
        type            empty;
    }
}


// ************************************************************************* //
