/*--------------------------------*- C++ -*----------------------------------*\
| =========                 |                                                 |
| \\      /  F ield         | foam-extend: Open Source CFD                    |
|  \\    /   O peration     | Version:     5.0                                |
|   \\  /    A nd           | Web:         http://www.foam-extend.org         |
|    \\/     M anipulation  |                                                 |
\*---------------------------------------------------------------------------*/
FoamFile
{
    version     2.0;
    format      ascii;
    class       volVectorField;
    location    "6";
    object      U.gas;
}
// * * * * * * * * * * * * * * * * * * * * * * * * * * * * * * * * * * * * * //

dimensions      [0 1 -1 0 0 0 0];

internalField   nonuniform List<vector> 
100
(
(9.17213e-05 0 0)
(0.000205381 0 0)
(0.000311347 0 0)
(0.000413088 0 0)
(0.000513353 0 0)
(0.000613605 0 0)
(0.000713563 0 0)
(0.000812481 0 0)
(0.000912793 0 0)
(0.00101133 0 0)
(0.00110904 0 0)
(0.00121031 0 0)
(0.00130952 0 0)
(0.0014094 0 0)
(0.00151201 0 0)
(0.00161478 0 0)
(0.00172197 0 0)
(0.00182828 0 0)
(0.00193906 0 0)
(0.0020549 0 0)
(0.00217713 0 0)
(0.00230235 0 0)
(0.00243927 0 0)
(0.00258968 0 0)
(0.00275357 0 0)
(0.00294957 0 0)
(0.00319341 0 0)
(0.0035225 0 0)
(0.00403397 0 0)
(0.0050088 0 0)
(0.00781513 0 0)
(0.0103389 0 0)
(0.00528594 0 0)
(0.00535669 0 0)
(0.00542756 0 0)
(0.00550742 0 0)
(0.00552211 0 0)
(0.0055223 0 0)
(0.00548792 0 0)
(0.00549086 0 0)
(0.00552052 0 0)
(0.00550467 0 0)
(0.00553729 0 0)
(0.00555062 0 0)
(0.00547405 0 0)
(0.00541211 0 0)
(0.00544266 0 0)
(0.00539464 0 0)
(0.00542827 0 0)
(0.00545913 0 0)
(0.00536584 0 0)
(0.00544227 0 0)
(0.00545344 0 0)
(0.00539212 0 0)
(0.00542701 0 0)
(0.00541232 0 0)
(0.0054263 0 0)
(0.00548887 0 0)
(0.00555326 0 0)
(0.00558483 0 0)
(0.00555336 0 0)
(0.00544381 0 0)
(0.00538423 0 0)
(0.00547569 0 0)
(0.00555398 0 0)
(0.00551985 0 0)
(0.00547626 0 0)
(0.00547543 0 0)
(0.00548923 0 0)
(0.00539192 0 0)
(0.00528352 0 0)
(0.00528204 0 0)
(0.00518633 0 0)
(0.00515841 0 0)
(0.00518517 0 0)
(0.00511852 0 0)
(0.004993 0 0)
(0.00501072 0 0)
(0.00515151 0 0)
(0.00513351 0 0)
(0.00505648 0 0)
(0.00497728 0 0)
(0.00501056 0 0)
(0.00508911 0 0)
(0.00500878 0 0)
(0.00502967 0 0)
(0.00499421 0 0)
(0.00497772 0 0)
(0.00497675 0 0)
(0.00496609 0 0)
(0.0050085 0 0)
(0.00496121 0 0)
(0.00499396 0 0)
(0.00496218 0 0)
(0.00482013 0 0)
(0.00483729 0 0)
(0.00494964 0 0)
(0.00497936 0 0)
(0.00500847 0 0)
(0.00507117 0 0)
)
;

boundaryField
{
    inlet
    {
        type            fixedValue;
        value           uniform (0 0 0);
    }
    outlet
    {
        type            zeroGradient;
    }
    yzfaces
    {
        type            empty;
    }
}


// ************************************************************************* //
