/*--------------------------------*- C++ -*----------------------------------*\
| =========                 |                                                 |
| \\      /  F ield         | foam-extend: Open Source CFD                    |
|  \\    /   O peration     | Version:     5.0                                |
|   \\  /    A nd           | Web:         http://www.foam-extend.org         |
|    \\/     M anipulation  |                                                 |
\*---------------------------------------------------------------------------*/
FoamFile
{
    version     2.0;
    format      ascii;
    class       volScalarField;
    location    "2";
    object      alpha.water;
}
// * * * * * * * * * * * * * * * * * * * * * * * * * * * * * * * * * * * * * //

dimensions      [0 0 0 0 0 0 0];

internalField   nonuniform List<scalar> 
100
(
0.199545
0.199257
0.198978
0.19869
0.198377
0.198011
0.197538
0.196802
0.195239
0.189347
0.132619
0.0155811
0.00998459
0.0100308
0.0100568
0.00998238
0.010005
0.00998332
0.00995455
0.010079
0.0100102
0.0100078
0.0100278
0.0100051
0.00997842
0.00997897
0.0100025
0.0100322
0.0100232
0.0100036
0.0100871
0.0100274
0.0100067
0.0100514
0.0100324
0.00993198
0.0100079
0.0100041
0.0100264
0.00995216
0.00995679
0.0100313
0.010031
0.0100547
0.0100018
0.00993084
0.010004
0.0100116
0.00998244
0.00995667
0.00995509
0.0100311
0.0100314
0.0100586
0.0100017
0.0100343
0.00994924
0.00999924
0.00998241
0.0098805
0.0099777
0.0100037
0.00997952
0.0100076
0.00990245
0.00997969
0.0100296
0.00995888
0.0100057
0.00993223
0.0101057
0.00995163
0.00999574
0.00998046
0.0100277
0.0100248
0.0100308
0.00998645
0.0099776
0.0100322
0.0100042
0.0100226
0.00998056
0.0100845
0.00995519
0.0100291
0.0099569
0.00993341
0.0100548
0.00998319
0.010056
0.0100076
0.0100037
0.0100083
0.0100047
0.0100314
0.0100553
0.0100035
0.0099583
0.0100438
)
;

boundaryField
{
    inlet
    {
        type            fixedValue;
        value           uniform 0.2;
    }
    outlet
    {
        type            zeroGradient;
    }
    yzfaces
    {
        type            empty;
    }
}


// ************************************************************************* //
