/*--------------------------------*- C++ -*----------------------------------*\
| =========                 |                                                 |
| \\      /  F ield         | foam-extend: Open Source CFD                    |
|  \\    /   O peration     | Version:     5.0                                |
|   \\  /    A nd           | Web:         http://www.foam-extend.org         |
|    \\/     M anipulation  |                                                 |
\*---------------------------------------------------------------------------*/
FoamFile
{
    version     2.0;
    format      ascii;
    class       volScalarField;
    location    "2";
    object      CO2.water;
}
// * * * * * * * * * * * * * * * * * * * * * * * * * * * * * * * * * * * * * //

dimensions      [0 0 0 0 0 0 0];

internalField   nonuniform List<scalar> 
100
(
4.48727e-06
4.1547e-05
0.000201376
0.000680724
0.00180457
0.00399018
0.00768013
0.0132281
0.0207578
0.0297067
0.0304821
0.0113157
0.0100045
0.00999947
0.0100002
0.00999956
0.01
0.0099994
0.0100003
0.00999977
0.00999991
0.0100001
0.0100001
0.00999996
0.0100005
0.00999975
0.00999962
0.00999984
0.0100007
0.0099998
0.00999992
0.0100001
0.0100002
0.0100003
0.00999996
0.00999979
0.0100004
0.0100001
0.00999999
0.0100004
0.00999888
0.0100013
0.00999955
0.0100004
0.00999892
0.00999975
0.0100001
0.00999983
0.0100008
0.0099997
0.0100009
0.00999929
0.00999995
0.00999968
0.0100002
0.0100001
0.0100001
0.0100004
0.00999951
0.00999975
0.00999989
0.00999978
0.00999925
0.00999992
0.00999982
0.0100005
0.00999946
0.0100006
0.00999938
0.0100001
0.00999986
0.01
0.00999969
0.00999995
0.0100003
0.00999997
0.0100003
0.00999964
0.01
0.00999991
0.0100006
0.00999914
0.0100007
0.00999994
0.00999963
0.0100002
0.0100003
0.0100001
0.0100001
0.0100001
0.0099997
0.00999985
0.0100001
0.01
0.00999957
0.0100001
0.0100001
0.00999942
0.0100003
0.00999889
)
;

boundaryField
{
    inlet
    {
        type            fixedValue;
        value           uniform 0;
    }
    outlet
    {
        type            zeroGradient;
    }
    yzfaces
    {
        type            empty;
    }
}


// ************************************************************************* //
