/*--------------------------------*- C++ -*----------------------------------*\
| =========                 |                                                 |
| \\      /  F ield         | foam-extend: Open Source CFD                    |
|  \\    /   O peration     | Version:     5.0                                |
|   \\  /    A nd           | Web:         http://www.foam-extend.org         |
|    \\/     M anipulation  |                                                 |
\*---------------------------------------------------------------------------*/
FoamFile
{
    version     2.0;
    format      ascii;
    class       surfaceScalarField;
    location    "2";
    object      phi;
}
// * * * * * * * * * * * * * * * * * * * * * * * * * * * * * * * * * * * * * //

dimensions      [0 3 -1 0 0 0 0];

internalField   nonuniform List<scalar> 
99
(
1.22505e-06
1.22534e-06
1.22479e-06
1.22543e-06
1.22511e-06
1.22457e-06
1.22515e-06
1.22486e-06
1.2243e-06
1.22483e-06
1.22747e-06
1.21521e-06
1.20646e-06
1.22195e-06
1.24309e-06
1.21511e-06
1.22197e-06
1.19275e-06
1.20023e-06
1.22811e-06
1.23039e-06
1.22194e-06
1.21391e-06
1.20615e-06
1.20738e-06
1.20676e-06
1.21423e-06
1.21507e-06
1.20619e-06
1.20705e-06
1.22158e-06
1.21388e-06
1.19243e-06
1.20669e-06
1.20671e-06
1.14903e-06
1.17041e-06
1.16236e-06
1.154e-06
1.14032e-06
1.1257e-06
1.14707e-06
1.17689e-06
1.1984e-06
1.191e-06
1.16419e-06
1.17014e-06
1.18533e-06
1.1853e-06
1.16299e-06
1.17074e-06
1.16949e-06
1.18435e-06
1.19242e-06
1.18442e-06
1.19185e-06
1.1549e-06
1.18358e-06
1.17039e-06
1.11885e-06
1.14743e-06
1.14714e-06
1.14095e-06
1.14028e-06
1.10337e-06
1.11049e-06
1.1397e-06
1.08876e-06
1.09528e-06
1.07445e-06
1.1459e-06
1.10333e-06
1.1099e-06
1.11797e-06
1.13221e-06
1.12449e-06
1.16183e-06
1.14896e-06
1.16207e-06
1.16974e-06
1.16978e-06
1.18358e-06
1.17007e-06
1.20674e-06
1.17787e-06
1.19186e-06
1.16324e-06
1.14121e-06
1.17662e-06
1.14808e-06
1.18436e-06
1.15488e-06
1.16259e-06
1.16951e-06
1.1543e-06
1.17009e-06
1.19213e-06
1.16951e-06
1.14802e-06
)
;

boundaryField
{
    inlet
    {
        type            calculated;
        value           uniform -1.225e-06;
    }
    outlet
    {
        type            calculated;
        value           uniform 1.14653e-06;
    }
    yzfaces
    {
        type            empty;
    }
}


// ************************************************************************* //
