/*--------------------------------*- C++ -*----------------------------------*\
| =========                 |                                                 |
| \\      /  F ield         | foam-extend: Open Source CFD                    |
|  \\    /   O peration     | Version:     5.0                                |
|   \\  /    A nd           | Web:         http://www.foam-extend.org         |
|    \\/     M anipulation  |                                                 |
\*---------------------------------------------------------------------------*/
FoamFile
{
    version     2.0;
    format      ascii;
    class       volScalarField;
    location    "2";
    object      S.water;
}
// * * * * * * * * * * * * * * * * * * * * * * * * * * * * * * * * * * * * * //

dimensions      [0 0 0 0 0 0 0];

internalField   nonuniform List<scalar> 
100
(
0.997727
0.996287
0.994888
0.993451
0.991887
0.990055
0.987689
0.984012
0.976197
0.946736
0.663096
0.0779054
0.0499229
0.0501541
0.0502842
0.0499119
0.0500251
0.0499166
0.0497728
0.0503951
0.0500512
0.0500388
0.0501392
0.0500257
0.0498921
0.0498948
0.0500126
0.0501612
0.0501159
0.0500182
0.0504355
0.050137
0.0500335
0.0502571
0.0501618
0.0496599
0.0500394
0.0500207
0.050132
0.0497608
0.049784
0.0501565
0.0501548
0.0502737
0.0500091
0.0496542
0.0500201
0.0500579
0.0499122
0.0497833
0.0497755
0.0501554
0.0501569
0.050293
0.0500087
0.0501714
0.0497462
0.0499962
0.0499121
0.0494025
0.0498885
0.0500184
0.0498976
0.0500378
0.0495123
0.0498985
0.0501479
0.0497944
0.0500287
0.0496612
0.0505287
0.0497581
0.0499787
0.0499023
0.0501385
0.0501241
0.0501538
0.0499323
0.049888
0.0501608
0.0500209
0.0501129
0.0499028
0.0504226
0.0497759
0.0501456
0.0497845
0.0496671
0.0502742
0.049916
0.05028
0.0500382
0.0500183
0.0500417
0.0500237
0.0501572
0.0502764
0.0500177
0.0497915
0.050219
)
;

boundaryField
{
    inlet
    {
        type            calculated;
        value           uniform 1;
    }
    outlet
    {
        type            calculated;
        value           uniform 0.050219;
    }
    yzfaces
    {
        type            empty;
    }
}


// ************************************************************************* //
