/*--------------------------------*- C++ -*----------------------------------*\
| =========                 |                                                 |
| \\      /  F ield         | foam-extend: Open Source CFD                    |
|  \\    /   O peration     | Version:     5.0                                |
|   \\  /    A nd           | Web:         http://www.foam-extend.org         |
|    \\/     M anipulation  |                                                 |
\*---------------------------------------------------------------------------*/
FoamFile
{
    version     2.0;
    format      ascii;
    class       volVectorField;
    location    "2";
    object      U.gas;
}
// * * * * * * * * * * * * * * * * * * * * * * * * * * * * * * * * * * * * * //

dimensions      [0 1 -1 0 0 0 0];

internalField   nonuniform List<vector> 
100
(
(0.000324191 0 0)
(0.000729771 0 0)
(0.0011184 0 0)
(0.0015127 0 0)
(0.00192541 0 0)
(0.0023837 0 0)
(0.00293504 0 0)
(0.00367799 0 0)
(0.00498003 0 0)
(0.00868617 0 0)
(0.00809197 0 0)
(0.00523251 0 0)
(0.00520141 0 0)
(0.00521737 0 0)
(0.0052968 0 0)
(0.00528004 0 0)
(0.00523529 0 0)
(0.00518666 0 0)
(0.00513918 0 0)
(0.00521854 0 0)
(0.00528144 0 0)
(0.00526811 0 0)
(0.00523327 0 0)
(0.00519873 0 0)
(0.00518399 0 0)
(0.00518532 0 0)
(0.00520066 0 0)
(0.00521931 0 0)
(0.00520179 0 0)
(0.00518404 0 0)
(0.00521939 0 0)
(0.00523242 0 0)
(0.00516925 0 0)
(0.00515501 0 0)
(0.00518516 0 0)
(0.00505861 0 0)
(0.00498265 0 0)
(0.00501119 0 0)
(0.00497653 0 0)
(0.00492724 0 0)
(0.00486658 0 0)
(0.00488298 0 0)
(0.00499296 0 0)
(0.00510388 0 0)
(0.00513276 0 0)
(0.00505739 0 0)
(0.00501455 0 0)
(0.00506015 0 0)
(0.00509191 0 0)
(0.00504326 0 0)
(0.00501197 0 0)
(0.00502794 0 0)
(0.00505718 0 0)
(0.00510716 0 0)
(0.00510577 0 0)
(0.00510543 0 0)
(0.00503975 0 0)
(0.00502333 0 0)
(0.00505616 0 0)
(0.00491448 0 0)
(0.00486769 0 0)
(0.00492912 0 0)
(0.00491457 0 0)
(0.00490055 0 0)
(0.00481716 0 0)
(0.00475512 0 0)
(0.00483443 0 0)
(0.00478598 0 0)
(0.00469173 0 0)
(0.00465917 0 0)
(0.00477224 0 0)
(0.0048304 0 0)
(0.00475418 0 0)
(0.00478525 0 0)
(0.00483438 0 0)
(0.0048483 0 0)
(0.00491208 0 0)
(0.0049635 0 0)
(0.00496379 0 0)
(0.00500987 0 0)
(0.0050257 0 0)
(0.00505592 0 0)
(0.00505541 0 0)
(0.00510794 0 0)
(0.00512122 0 0)
(0.00509124 0 0)
(0.0050579 0 0)
(0.00494851 0 0)
(0.00498042 0 0)
(0.0049933 0 0)
(0.00501185 0 0)
(0.00502518 0 0)
(0.0049783 0 0)
(0.00500986 0 0)
(0.00499195 0 0)
(0.00499389 0 0)
(0.00507582 0 0)
(0.0050732 0 0)
(0.00497726 0 0)
(0.00493012 0 0)
)
;

boundaryField
{
    inlet
    {
        type            fixedValue;
        value           uniform (0 0 0);
    }
    outlet
    {
        type            zeroGradient;
    }
    yzfaces
    {
        type            empty;
    }
}


// ************************************************************************* //
