/*--------------------------------*- C++ -*----------------------------------*\
| =========                 |                                                 |
| \\      /  F ield         | foam-extend: Open Source CFD                    |
|  \\    /   O peration     | Version:     5.0                                |
|   \\  /    A nd           | Web:         http://www.foam-extend.org         |
|    \\/     M anipulation  |                                                 |
\*---------------------------------------------------------------------------*/
FoamFile
{
    version     2.0;
    format      ascii;
    class       volScalarField;
    location    "10";
    object      YCO2;
}
// * * * * * * * * * * * * * * * * * * * * * * * * * * * * * * * * * * * * * //

dimensions      [0 0 0 0 0 0 0];

internalField   nonuniform List<scalar> 
100
(
0.0170796
-0.0225792
0.0239524
-0.0113794
-0.00939606
-0.00270953
0.00869548
0.0133474
-0.0384581
0.0456706
0.00592826
-0.0428285
0.0543177
-0.0341165
0.026352
-0.0119778
0.0195671
-0.0109382
0.0201124
-0.0198797
0.0427316
-0.045879
0.0590547
-0.0341214
0.0231443
0.00491624
0.00128555
0.00534039
0.0054658
0.00903696
0.0127663
-0.00816217
0.0283098
-0.000199906
0.00305749
0.016199
0.00378013
0.00939042
0.0188109
-0.0111648
0.0389622
-0.0136921
0.0268721
0.0128799
0.0176447
0.0212712
0.0741029
0.154219
0.316329
0.402349
0.625525
0.661916
0.791599
0.833276
0.935172
0.952653
1.00329
0.93807
1.08986
0.91907
1.06498
0.895111
1.11535
0.899528
1.08683
0.968143
1.02055
1.00849
0.939758
1.06022
0.909244
1.02803
0.950874
1.01569
1.05235
0.959206
1.13249
0.959084
1.08815
0.962757
1.06449
0.963747
1.06978
0.957886
1.04042
0.964625
0.994379
1.01405
1.00467
0.99651
1.00668
0.969306
1.006
0.943496
0.968152
0.939207
0.98429
0.988907
0.997423
1.02728
)
;

boundaryField
{
    inlet
    {
        type            fixedValue;
        value           uniform 0;
    }
    outlet
    {
        type            zeroGradient;
    }
    yzfaces
    {
        type            empty;
    }
}


// ************************************************************************* //
