/*--------------------------------*- C++ -*----------------------------------*\
| =========                 |                                                 |
| \\      /  F ield         | foam-extend: Open Source CFD                    |
|  \\    /   O peration     | Version:     5.0                                |
|   \\  /    A nd           | Web:         http://www.foam-extend.org         |
|    \\/     M anipulation  |                                                 |
\*---------------------------------------------------------------------------*/
FoamFile
{
    version     2.0;
    format      ascii;
    class       surfaceScalarField;
    location    "8";
    object      phi;
}
// * * * * * * * * * * * * * * * * * * * * * * * * * * * * * * * * * * * * * //

dimensions      [0 3 -1 0 0 0 0];

internalField   nonuniform List<scalar> 
99
(
1.22269e-06
1.22748e-06
1.22304e-06
1.22655e-06
1.22589e-06
1.22641e-06
1.22556e-06
1.22681e-06
1.22342e-06
1.22563e-06
1.22575e-06
1.22496e-06
1.22488e-06
1.22481e-06
1.22477e-06
1.2259e-06
1.22401e-06
1.22565e-06
1.22475e-06
1.2241e-06
1.22229e-06
1.22686e-06
1.22445e-06
1.22251e-06
1.22587e-06
1.22435e-06
1.22458e-06
1.22553e-06
1.22386e-06
1.22625e-06
1.22444e-06
1.22244e-06
1.22445e-06
1.22416e-06
1.22413e-06
1.22224e-06
1.22594e-06
1.22759e-06
1.21356e-06
1.22566e-06
1.23859e-06
1.24472e-06
1.25762e-06
1.25284e-06
1.24963e-06
1.21246e-06
1.18486e-06
1.28245e-06
1.20705e-06
1.1921e-06
1.2368e-06
1.2815e-06
1.2666e-06
1.3113e-06
1.2964e-06
1.2964e-06
1.2964e-06
1.2815e-06
1.2517e-06
1.2964e-06
1.2815e-06
1.3113e-06
1.3113e-06
1.3113e-06
1.3262e-06
1.3262e-06
1.3113e-06
1.3113e-06
1.3411e-06
1.3411e-06
1.35601e-06
1.40071e-06
1.38581e-06
1.44541e-06
1.43051e-06
1.43051e-06
1.43051e-06
1.44541e-06
1.47521e-06
1.49012e-06
1.46031e-06
1.46031e-06
1.47521e-06
1.46031e-06
1.49012e-06
1.50502e-06
1.47521e-06
1.51992e-06
1.51992e-06
1.51992e-06
1.56462e-06
1.57952e-06
1.51992e-06
1.56462e-06
1.59442e-06
1.57952e-06
1.59442e-06
1.63913e-06
1.63913e-06
)
;

boundaryField
{
    inlet
    {
        type            calculated;
        value           uniform -1.225e-06;
    }
    outlet
    {
        type            calculated;
        value           uniform 1.63913e-06;
    }
    yzfaces
    {
        type            empty;
    }
}


// ************************************************************************* //
