/*--------------------------------*- C++ -*----------------------------------*\
| =========                 |                                                 |
| \\      /  F ield         | foam-extend: Open Source CFD                    |
|  \\    /   O peration     | Version:     5.0                                |
|   \\  /    A nd           | Web:         http://www.foam-extend.org         |
|    \\/     M anipulation  |                                                 |
\*---------------------------------------------------------------------------*/
FoamFile
{
    version     2.0;
    format      ascii;
    class       volScalarField;
    location    "4";
    object      alpha.gas;
}
// * * * * * * * * * * * * * * * * * * * * * * * * * * * * * * * * * * * * * //

dimensions      [0 0 0 0 0 0 0];

internalField   nonuniform List<scalar> 
100
(
0.0815919
0.0798565
0.0782231
0.0764977
0.0748605
0.0732737
0.0717642
0.0702416
0.0688642
0.0674779
0.0661184
0.0648439
0.0636006
0.0624684
0.0612925
0.0601719
0.0590946
0.0580938
0.057113
0.0561168
0.05522
0.0544069
0.0535194
0.0526794
0.0518718
0.0511489
0.0504823
0.0497155
0.0490236
0.0483221
0.0477017
0.0470506
0.0464421
0.0458401
0.0452154
0.0446799
0.0441118
0.0435908
0.0430888
0.0425606
0.0420848
0.041584
0.0411198
0.0406372
0.0401716
0.0397174
0.0392924
0.038877
0.038446
0.0380252
0.0376218
0.0372427
0.0368605
0.0364613
0.0360965
0.0357202
0.0353596
0.0350011
0.0346626
0.0343112
0.0339795
0.0336375
0.0332802
0.032976
0.0326784
0.0323661
0.0320411
0.0317402
0.0314259
0.0311352
0.0308133
0.0305108
0.0302257
0.0299379
0.0296352
0.0293265
0.0290562
0.0287716
0.0284858
0.0282123
0.027923
0.0276348
0.0273588
0.0270668
0.0268023
0.0265128
0.0262399
0.0259599
0.0256854
0.0254304
0.0251623
0.0248828
0.0246069
0.0243421
0.0240648
0.0237966
0.0235151
0.0232416
0.0229914
0.0228011
)
;

boundaryField
{
    inlet
    {
        type            fixedValue;
        value           uniform 0.2;
    }
    outlet
    {
        type            zeroGradient;
    }
    yzfaces
    {
        type            empty;
    }
}


// ************************************************************************* //
