/*--------------------------------*- C++ -*----------------------------------*\
| =========                 |                                                 |
| \\      /  F ield         | foam-extend: Open Source CFD                    |
|  \\    /   O peration     | Version:     5.0                                |
|   \\  /    A nd           | Web:         http://www.foam-extend.org         |
|    \\/     M anipulation  |                                                 |
\*---------------------------------------------------------------------------*/
FoamFile
{
    version     2.0;
    format      ascii;
    class       surfaceScalarField;
    location    "4";
    object      phi;
}
// * * * * * * * * * * * * * * * * * * * * * * * * * * * * * * * * * * * * * //

dimensions      [0 3 -1 0 0 0 0];

internalField   nonuniform List<scalar> 
99
(
1.22425e-06
1.22533e-06
1.21767e-06
1.22648e-06
1.22611e-06
1.22893e-06
1.22411e-06
1.22556e-06
1.22552e-06
1.22897e-06
1.23072e-06
1.22777e-06
1.22774e-06
1.22551e-06
1.22957e-06
1.22946e-06
1.23063e-06
1.22958e-06
1.22513e-06
1.22842e-06
1.23103e-06
1.22686e-06
1.2308e-06
1.22944e-06
1.23165e-06
1.23439e-06
1.22719e-06
1.23045e-06
1.23172e-06
1.23394e-06
1.23056e-06
1.23257e-06
1.23052e-06
1.228e-06
1.2311e-06
1.23039e-06
1.23256e-06
1.23089e-06
1.23068e-06
1.2317e-06
1.2302e-06
1.23105e-06
1.22946e-06
1.23013e-06
1.23117e-06
1.23094e-06
1.23225e-06
1.23086e-06
1.22996e-06
1.23035e-06
1.23111e-06
1.23222e-06
1.23181e-06
1.23201e-06
1.23166e-06
1.2322e-06
1.23375e-06
1.23462e-06
1.2346e-06
1.23532e-06
1.23393e-06
1.2355e-06
1.23855e-06
1.23884e-06
1.23771e-06
1.23769e-06
1.23742e-06
1.23701e-06
1.23911e-06
1.23743e-06
1.23962e-06
1.2408e-06
1.24068e-06
1.23818e-06
1.23673e-06
1.23846e-06
1.23755e-06
1.23752e-06
1.23828e-06
1.23739e-06
1.23763e-06
1.23752e-06
1.23679e-06
1.23705e-06
1.2358e-06
1.23636e-06
1.23762e-06
1.23866e-06
1.24055e-06
1.23918e-06
1.23868e-06
1.23955e-06
1.23939e-06
1.2386e-06
1.23965e-06
1.23847e-06
1.23815e-06
1.23846e-06
1.2395e-06
)
;

boundaryField
{
    inlet
    {
        type            calculated;
        value           uniform -1.225e-06;
    }
    outlet
    {
        type            calculated;
        value           uniform 1.23867e-06;
    }
    yzfaces
    {
        type            empty;
    }
}


// ************************************************************************* //
