/*--------------------------------*- C++ -*----------------------------------*\
| =========                 |                                                 |
| \\      /  F ield         | foam-extend: Open Source CFD                    |
|  \\    /   O peration     | Version:     5.0                                |
|   \\  /    A nd           | Web:         http://www.foam-extend.org         |
|    \\/     M anipulation  |                                                 |
\*---------------------------------------------------------------------------*/
FoamFile
{
    version     2.0;
    format      ascii;
    class       volVectorField;
    location    "4";
    object      U.water;
}
// * * * * * * * * * * * * * * * * * * * * * * * * * * * * * * * * * * * * * //

dimensions      [0 1 -1 0 0 0 0];

internalField   nonuniform List<vector> 
100
(
(1.44299e-05 0 0)
(4.66314e-05 0 0)
(6.60875e-05 0 0)
(8.63358e-05 0 0)
(0.000119685 0 0)
(0.00015143 0 0)
(0.000178163 0 0)
(0.000210766 0 0)
(0.000244258 0 0)
(0.000268976 0 0)
(0.000301874 0 0)
(0.00033492 0 0)
(0.000369622 0 0)
(0.000398752 0 0)
(0.000424402 0 0)
(0.000457138 0 0)
(0.000491607 0 0)
(0.000524687 0 0)
(0.00054934 0 0)
(0.000581062 0 0)
(0.000621158 0 0)
(0.000646885 0 0)
(0.000670823 0 0)
(0.000703268 0 0)
(0.000738112 0 0)
(0.000775041 0 0)
(0.000795913 0 0)
(0.000818875 0 0)
(0.00085123 0 0)
(0.000883569 0 0)
(0.000913195 0 0)
(0.00093925 0 0)
(0.000968851 0 0)
(0.00099284 0 0)
(0.00102397 0 0)
(0.00105504 0 0)
(0.00108287 0 0)
(0.00111407 0 0)
(0.00113882 0 0)
(0.00116641 0 0)
(0.00119388 0 0)
(0.00122049 0 0)
(0.00124806 0 0)
(0.00127388 0 0)
(0.00130329 0 0)
(0.00133368 0 0)
(0.00136319 0 0)
(0.00138888 0 0)
(0.00141409 0 0)
(0.00144153 0 0)
(0.00147097 0 0)
(0.00149986 0 0)
(0.00152542 0 0)
(0.00155332 0 0)
(0.00158129 0 0)
(0.00160827 0 0)
(0.00163787 0 0)
(0.00166721 0 0)
(0.00169449 0 0)
(0.00172196 0 0)
(0.00174862 0 0)
(0.00177413 0 0)
(0.00180716 0 0)
(0.00184027 0 0)
(0.00186517 0 0)
(0.00188849 0 0)
(0.00191545 0 0)
(0.0019436 0 0)
(0.00197316 0 0)
(0.00200042 0 0)
(0.00202787 0 0)
(0.00206028 0 0)
(0.00208963 0 0)
(0.00211431 0 0)
(0.00213838 0 0)
(0.00216895 0 0)
(0.0021987 0 0)
(0.00222542 0 0)
(0.00225563 0 0)
(0.00228386 0 0)
(0.00231199 0 0)
(0.0023431 0 0)
(0.00237187 0 0)
(0.00240174 0 0)
(0.00243109 0 0)
(0.00246009 0 0)
(0.00249325 0 0)
(0.00252646 0 0)
(0.00256131 0 0)
(0.00259254 0 0)
(0.00262045 0 0)
(0.0026521 0 0)
(0.00268532 0 0)
(0.00271654 0 0)
(0.00274899 0 0)
(0.00278194 0 0)
(0.00281373 0 0)
(0.00284813 0 0)
(0.00288504 0 0)
(0.00292152 0 0)
)
;

boundaryField
{
    inlet
    {
        type            fixedValue;
        value           uniform (0 0 0);
    }
    outlet
    {
        type            zeroGradient;
    }
    yzfaces
    {
        type            empty;
    }
}


// ************************************************************************* //
