/*--------------------------------*- C++ -*----------------------------------*\
| =========                 |                                                 |
| \\      /  F ield         | foam-extend: Open Source CFD                    |
|  \\    /   O peration     | Version:     5.0                                |
|   \\  /    A nd           | Web:         http://www.foam-extend.org         |
|    \\/     M anipulation  |                                                 |
\*---------------------------------------------------------------------------*/
FoamFile
{
    version     2.0;
    format      ascii;
    class       volScalarField;
    location    "4";
    object      YCO2;
}
// * * * * * * * * * * * * * * * * * * * * * * * * * * * * * * * * * * * * * //

dimensions      [0 0 0 0 0 0 0];

internalField   nonuniform List<scalar> 
100
(
1.00091
1.00066
0.999047
0.998878
1.00066
1.00245
0.998987
1.00006
1.00187
1.00248
1.00042
1.00283
0.998042
1.0021
0.996568
1.00384
0.999535
1.00323
0.99985
1.00364
1.00227
1.00003
0.999658
1.00031
1.00152
1.00074
1.00092
0.998874
0.99815
0.998259
1.00068
0.999016
1.00066
0.999427
0.999155
1.00037
0.998293
1.00023
0.999789
1.00138
0.998467
1.0011
0.999361
1.00031
0.999886
1.00326
0.997385
1.00039
0.999271
0.997887
1.00073
0.998973
0.999859
0.999062
0.999359
0.999821
0.999683
1.00161
0.999502
1.00112
1.00239
0.999805
1.00176
0.99947
1.00175
1.00081
1.00072
1.00122
0.999314
1.00107
0.99988
1.00142
1.00137
1.00134
1.00175
1.00215
1.0019
1.00198
1.0006
0.999387
0.996484
0.992405
0.986967
0.980254
0.9708
0.958466
0.945225
0.927527
0.909337
0.885731
0.864211
0.834464
0.812952
0.778157
0.756975
0.71881
0.702728
0.662605
0.653077
0.611843
)
;

boundaryField
{
    inlet
    {
        type            fixedValue;
        value           uniform 1;
    }
    outlet
    {
        type            zeroGradient;
    }
    yzfaces
    {
        type            empty;
    }
}


// ************************************************************************* //
