/*--------------------------------*- C++ -*----------------------------------*\
| =========                 |                                                 |
| \\      /  F ield         | foam-extend: Open Source CFD                    |
|  \\    /   O peration     | Version:     5.0                                |
|   \\  /    A nd           | Web:         http://www.foam-extend.org         |
|    \\/     M anipulation  |                                                 |
\*---------------------------------------------------------------------------*/
FoamFile
{
    version     2.0;
    format      ascii;
    class       volScalarField;
    location    "4";
    object      YH2O;
}
// * * * * * * * * * * * * * * * * * * * * * * * * * * * * * * * * * * * * * //

dimensions      [0 0 0 0 0 0 0];

internalField   nonuniform List<scalar> 
100
(
-0.000911536
-0.000663767
0.000953321
0.00112163
-0.000656912
-0.00244533
0.00101305
-5.85687e-05
-0.00187235
-0.00247792
-0.000423187
-0.00283387
0.00195845
-0.00210333
0.00343188
-0.00384115
0.000464752
-0.00322507
0.000149844
-0.00364328
-0.00227398
-3.07793e-05
0.000342088
-0.000312695
-0.00152314
-0.000741514
-0.000918645
0.00112562
0.00184973
0.00174088
-0.00067829
0.000984492
-0.000655016
0.000573471
0.000844843
-0.000372606
0.00170743
-0.000231549
0.000211063
-0.00137522
0.00153263
-0.00109982
0.000638664
-0.000306
0.000114207
-0.00326178
0.00261476
-0.000393238
0.000729173
0.00211347
-0.000734921
0.0010269
0.000140512
0.000938022
0.000640573
0.000178921
0.000317242
-0.00160526
0.000497547
-0.00112018
-0.00238921
0.000195209
-0.00176196
0.00053005
-0.00175005
-0.000811651
-0.000724919
-0.00122069
0.000685509
-0.00107245
0.000120277
-0.00142363
-0.001371
-0.00134112
-0.00175408
-0.00215217
-0.00189825
-0.00197665
-0.000596094
0.000612833
0.00351609
0.00759467
0.0130331
0.0197455
0.0292003
0.0415341
0.054775
0.0724732
0.090663
0.114269
0.135789
0.165536
0.187048
0.221843
0.243025
0.28119
0.297272
0.337395
0.346923
0.388157
)
;

boundaryField
{
    inlet
    {
        type            calculated;
        value           uniform 0;
    }
    outlet
    {
        type            calculated;
        value           uniform 0.388157;
    }
    yzfaces
    {
        type            empty;
    }
}


// ************************************************************************* //
