/*--------------------------------*- C++ -*----------------------------------*\
| =========                 |                                                 |
| \\      /  F ield         | foam-extend: Open Source CFD                    |
|  \\    /   O peration     | Version:     5.0                                |
|   \\  /    A nd           | Web:         http://www.foam-extend.org         |
|    \\/     M anipulation  |                                                 |
\*---------------------------------------------------------------------------*/
FoamFile
{
    version     2.0;
    format      ascii;
    class       volScalarField;
    location    "8";
    object      alpha.water;
}
// * * * * * * * * * * * * * * * * * * * * * * * * * * * * * * * * * * * * * //

dimensions      [0 0 0 0 0 0 0];

internalField   nonuniform List<scalar> 
100
(
0.199898
0.199836
0.199777
0.199721
0.199665
0.19961
0.199556
0.199502
0.199448
0.199394
0.19934
0.199286
0.199232
0.199178
0.199123
0.199068
0.199013
0.198957
0.198901
0.198844
0.198785
0.198727
0.198665
0.198603
0.198538
0.198471
0.198401
0.198326
0.198244
0.198155
0.198053
0.197936
0.19779
0.197599
0.197326
0.196891
0.196094
0.194149
0.187807
0.170066
0.142936
0.115299
0.0903232
0.0690584
0.0519722
0.0380282
0.0275145
0.0205573
0.0158176
0.0130757
0.0114061
0.0108565
0.0104783
0.0103203
0.0102848
0.0101974
0.0101356
0.0100983
0.0101299
0.0101193
0.0101474
0.0101523
0.0100662
0.0101159
0.0100676
0.00997763
0.0100884
0.0100479
0.00998901
0.00992301
0.00992508
0.00991961
0.00995589
0.00996731
0.0100375
0.00989402
0.0100042
0.00997161
0.00998594
0.00999173
0.00995697
0.00998467
0.00982053
0.00991593
0.0100496
0.00991272
0.00997412
0.010101
0.0100787
0.0100603
0.0101058
0.0101737
0.0100967
0.0100144
0.0102159
0.0101229
0.010216
0.0103009
0.0104314
0.0106125
)
;

boundaryField
{
    inlet
    {
        type            fixedValue;
        value           uniform 0.2;
    }
    outlet
    {
        type            zeroGradient;
    }
    yzfaces
    {
        type            empty;
    }
}


// ************************************************************************* //
