/*--------------------------------*- C++ -*----------------------------------*\
| =========                 |                                                 |
| \\      /  F ield         | foam-extend: Open Source CFD                    |
|  \\    /   O peration     | Version:     5.0                                |
|   \\  /    A nd           | Web:         http://www.foam-extend.org         |
|    \\/     M anipulation  |                                                 |
\*---------------------------------------------------------------------------*/
FoamFile
{
    version     2.0;
    format      ascii;
    class       surfaceScalarField;
    location    "8";
    object      phi;
}
// * * * * * * * * * * * * * * * * * * * * * * * * * * * * * * * * * * * * * //

dimensions      [0 3 -1 0 0 0 0];

internalField   nonuniform List<scalar> 
99
(
1.225e-06
1.2256e-06
1.22488e-06
1.22489e-06
1.22725e-06
1.22569e-06
1.2253e-06
1.22375e-06
1.22594e-06
1.22651e-06
1.22593e-06
1.22444e-06
1.22715e-06
1.22568e-06
1.22281e-06
1.22559e-06
1.22389e-06
1.22741e-06
1.22295e-06
1.22767e-06
1.22231e-06
1.22686e-06
1.22294e-06
1.22591e-06
1.22561e-06
1.22349e-06
1.22355e-06
1.22489e-06
1.22162e-06
1.22402e-06
1.22328e-06
1.22427e-06
1.22419e-06
1.22496e-06
1.22275e-06
1.22405e-06
1.22483e-06
1.22286e-06
1.22196e-06
1.226e-06
1.22555e-06
1.22628e-06
1.21712e-06
1.18751e-06
1.21939e-06
1.21241e-06
1.21049e-06
1.22847e-06
1.22181e-06
1.23469e-06
1.21205e-06
1.21687e-06
1.2227e-06
1.214e-06
1.22234e-06
1.22941e-06
1.21523e-06
1.20654e-06
1.19219e-06
1.20678e-06
1.21445e-06
1.23683e-06
1.23e-06
1.23687e-06
1.24478e-06
1.21425e-06
1.23683e-06
1.22975e-06
1.21466e-06
1.20691e-06
1.20737e-06
1.19932e-06
1.1925e-06
1.20671e-06
1.21463e-06
1.20656e-06
1.25065e-06
1.25119e-06
1.25126e-06
1.24451e-06
1.24414e-06
1.25241e-06
1.22881e-06
1.22834e-06
1.24463e-06
1.22961e-06
1.24314e-06
1.25192e-06
1.25191e-06
1.21434e-06
1.20644e-06
1.2296e-06
1.21511e-06
1.20601e-06
1.25223e-06
1.22227e-06
1.2366e-06
1.2217e-06
1.24335e-06
)
;

boundaryField
{
    inlet
    {
        type            calculated;
        value           uniform -1.225e-06;
    }
    outlet
    {
        type            calculated;
        value           uniform 1.22206e-06;
    }
    yzfaces
    {
        type            empty;
    }
}


// ************************************************************************* //
