/*--------------------------------*- C++ -*----------------------------------*\
| =========                 |                                                 |
| \\      /  F ield         | foam-extend: Open Source CFD                    |
|  \\    /   O peration     | Version:     5.0                                |
|   \\  /    A nd           | Web:         http://www.foam-extend.org         |
|    \\/     M anipulation  |                                                 |
\*---------------------------------------------------------------------------*/
FoamFile
{
    version     2.0;
    format      ascii;
    class       volScalarField;
    location    "6";
    object      XCO2;
}
// * * * * * * * * * * * * * * * * * * * * * * * * * * * * * * * * * * * * * //

dimensions      [0 0 0 0 0 0 0];

internalField   nonuniform List<scalar> 
100
(
0.00223734
-0.00471007
0.00292735
-0.00308178
0.000538077
0.000598236
-0.00194669
0.00247242
-0.00171329
0.00219901
-0.00232568
0.00439058
-0.00626677
0.00947908
-0.0101583
0.00937091
-0.00890165
0.0058275
-0.0011286
-0.000803641
0.00675763
-0.00790788
-0.001058
-0.00928535
-0.0061244
0.00475195
0.0336703
0.0576812
0.114945
0.15351
0.24796
0.299415
0.3855
0.427014
0.484953
0.452582
0.552262
0.466495
0.495195
0.518534
0.479703
0.492553
0.522822
0.455042
0.477179
0.589853
0.492995
0.537513
0.494125
0.501644
0.501308
0.534901
0.497139
0.513858
0.501627
0.474984
0.502704
0.457371
0.463241
0.506207
0.467242
0.548608
0.47122
0.495176
0.495125
0.517391
0.511826
0.465145
0.548923
0.488468
0.531838
0.473783
0.492863
0.509422
0.463179
0.547354
0.50643
0.493597
0.497951
0.541037
0.491887
0.494471
0.482776
0.467741
0.506485
0.451207
0.522107
0.439189
0.595483
0.470759
0.559021
0.472038
0.476445
0.528063
0.499631
0.475126
0.558599
0.444148
0.623569
0.276279
)
;

boundaryField
{
    inlet
    {
        type            fixedValue;
        value           uniform 0;
    }
    outlet
    {
        type            zeroGradient;
    }
    yzfaces
    {
        type            empty;
    }
}


// ************************************************************************* //
