/*--------------------------------*- C++ -*----------------------------------*\
| =========                 |                                                 |
| \\      /  F ield         | foam-extend: Open Source CFD                    |
|  \\    /   O peration     | Version:     5.0                                |
|   \\  /    A nd           | Web:         http://www.foam-extend.org         |
|    \\/     M anipulation  |                                                 |
\*---------------------------------------------------------------------------*/
FoamFile
{
    version     2.0;
    format      ascii;
    class       volScalarField;
    location    "3";
    object      alpha.water;
}
// * * * * * * * * * * * * * * * * * * * * * * * * * * * * * * * * * * * * * //

dimensions      [0 0 0 0 0 0 0];

internalField   nonuniform List<scalar> 
100
(
0.19972
0.199546
0.199381
0.199219
0.199057
0.198892
0.198722
0.198542
0.198348
0.198127
0.197858
0.197506
0.196976
0.195939
0.192659
0.165834
0.0340631
0.0100619
0.00999275
0.0100589
0.00997184
0.00993051
0.00999231
0.00999361
0.00997126
0.009948
0.00993051
0.0100145
0.00997563
0.0100166
0.0100305
0.0100337
0.00995169
0.0100814
0.0100812
0.010059
0.00995154
0.0100376
0.0100145
0.00990622
0.0100627
0.00996405
0.00999052
0.0100171
0.0100157
0.00996847
0.00999579
0.0100987
0.00995782
0.0100367
0.00992583
0.0100331
0.00999583
0.0101027
0.0100391
0.010034
0.00997144
0.00997533
0.0100793
0.0100348
0.0099276
0.0100544
0.0099511
0.00997079
0.0100327
0.00997015
0.0100144
0.00997565
0.00999442
0.00997427
0.00999156
0.0100419
0.0100125
0.00990433
0.0100162
0.0100167
0.00999332
0.0100303
0.00992691
0.00999428
0.00999592
0.00992708
0.010015
0.0100611
0.00999225
0.0099498
0.00994842
0.0100146
0.00994301
0.0100339
0.0100132
0.00998808
0.00999307
0.00992743
0.0100137
0.0099881
0.0099708
0.00998642
0.00994628
0.00996021
)
;

boundaryField
{
    inlet
    {
        type            fixedValue;
        value           uniform 0.2;
    }
    outlet
    {
        type            zeroGradient;
    }
    yzfaces
    {
        type            empty;
    }
}


// ************************************************************************* //
