/*--------------------------------*- C++ -*----------------------------------*\
| =========                 |                                                 |
| \\      /  F ield         | foam-extend: Open Source CFD                    |
|  \\    /   O peration     | Version:     5.0                                |
|   \\  /    A nd           | Web:         http://www.foam-extend.org         |
|    \\/     M anipulation  |                                                 |
\*---------------------------------------------------------------------------*/
FoamFile
{
    version     2.0;
    format      ascii;
    class       volScalarField;
    location    "3";
    object      CO2.water;
}
// * * * * * * * * * * * * * * * * * * * * * * * * * * * * * * * * * * * * * //

dimensions      [0 0 0 0 0 0 0];

internalField   nonuniform List<scalar> 
100
(
6.51898e-08
8.36884e-07
5.53533e-06
2.5168e-05
8.84259e-05
0.000255864
0.000634924
0.00138993
0.00274317
0.00495084
0.00827504
0.0129368
0.0191023
0.0268138
0.0357565
0.0408133
0.0160237
0.0100221
0.0100004
0.00999944
0.00999996
0.0100004
0.00999989
0.00999992
0.0100003
0.01
0.00999929
0.00999985
0.0100002
0.0100003
0.00999995
0.01
0.00999999
0.0100008
0.00999981
0.00999984
0.00999997
0.0100002
0.0100002
0.0100009
0.00999883
0.0100008
0.00999912
0.0100004
0.00999918
0.00999976
0.00999981
0.00999968
0.0100008
0.00999936
0.0100012
0.0099991
0.0100001
0.00999918
0.0100004
0.0100001
0.0100006
0.00999995
0.00999924
0.00999987
0.01
0.00999974
0.00999951
0.00999974
0.00999998
0.0100005
0.00999979
0.0100003
0.00999966
0.00999998
0.0100001
0.00999991
0.0100001
0.0100003
0.00999998
0.0100002
0.0100004
0.00999972
0.0100004
0.00999949
0.0100009
0.00999938
0.0100004
0.00999972
0.00999946
0.0100006
0.0100001
0.01
0.0100004
0.00999985
0.0100001
0.00999957
0.00999935
0.0100007
0.00999971
0.00999999
0.0100003
0.00999956
0.00999994
0.00999887
)
;

boundaryField
{
    inlet
    {
        type            fixedValue;
        value           uniform 0;
    }
    outlet
    {
        type            zeroGradient;
    }
    yzfaces
    {
        type            empty;
    }
}


// ************************************************************************* //
