/*--------------------------------*- C++ -*----------------------------------*\
| =========                 |                                                 |
| \\      /  F ield         | foam-extend: Open Source CFD                    |
|  \\    /   O peration     | Version:     5.0                                |
|   \\  /    A nd           | Web:         http://www.foam-extend.org         |
|    \\/     M anipulation  |                                                 |
\*---------------------------------------------------------------------------*/
FoamFile
{
    version     2.0;
    format      ascii;
    class       surfaceScalarField;
    location    "3";
    object      phi;
}
// * * * * * * * * * * * * * * * * * * * * * * * * * * * * * * * * * * * * * //

dimensions      [0 3 -1 0 0 0 0];

internalField   nonuniform List<scalar> 
99
(
1.22499e-06
1.22477e-06
1.22423e-06
1.22401e-06
1.2234e-06
1.22335e-06
1.22316e-06
1.22353e-06
1.22318e-06
1.22282e-06
1.2231e-06
1.2233e-06
1.22379e-06
1.22393e-06
1.22422e-06
1.22521e-06
1.21933e-06
1.22113e-06
1.21532e-06
1.23687e-06
1.23024e-06
1.20104e-06
1.21477e-06
1.22942e-06
1.19993e-06
1.17813e-06
1.15551e-06
1.1839e-06
1.17091e-06
1.16981e-06
1.16868e-06
1.19157e-06
1.14857e-06
1.20594e-06
1.22031e-06
1.20646e-06
1.1861e-06
1.20731e-06
1.20701e-06
1.14887e-06
1.21392e-06
1.16929e-06
1.19187e-06
1.20734e-06
1.19987e-06
1.19216e-06
1.20758e-06
1.23497e-06
1.1938e-06
1.23629e-06
1.18555e-06
1.25149e-06
1.22939e-06
1.28757e-06
1.2885e-06
1.28131e-06
1.25922e-06
1.26005e-06
1.3028e-06
1.28874e-06
1.26694e-06
1.28025e-06
1.27439e-06
1.25178e-06
1.28102e-06
1.25125e-06
1.27415e-06
1.26e-06
1.28131e-06
1.2677e-06
1.27411e-06
1.29642e-06
1.288e-06
1.24513e-06
1.27433e-06
1.27409e-06
1.28108e-06
1.30315e-06
1.25228e-06
1.27486e-06
1.25972e-06
1.25281e-06
1.26638e-06
1.28897e-06
1.25207e-06
1.22992e-06
1.2217e-06
1.23638e-06
1.21453e-06
1.23609e-06
1.2289e-06
1.22898e-06
1.21498e-06
1.1852e-06
1.21449e-06
1.19217e-06
1.18543e-06
1.18425e-06
1.13982e-06
)
;

boundaryField
{
    inlet
    {
        type            calculated;
        value           uniform -1.225e-06;
    }
    outlet
    {
        type            calculated;
        value           uniform 1.17805e-06;
    }
    yzfaces
    {
        type            empty;
    }
}


// ************************************************************************* //
