/*--------------------------------*- C++ -*----------------------------------*\
| =========                 |                                                 |
| \\      /  F ield         | foam-extend: Open Source CFD                    |
|  \\    /   O peration     | Version:     5.0                                |
|   \\  /    A nd           | Web:         http://www.foam-extend.org         |
|    \\/     M anipulation  |                                                 |
\*---------------------------------------------------------------------------*/
FoamFile
{
    version     2.0;
    format      ascii;
    class       volScalarField;
    location    "3";
    object      S.water;
}
// * * * * * * * * * * * * * * * * * * * * * * * * * * * * * * * * * * * * * //

dimensions      [0 0 0 0 0 0 0];

internalField   nonuniform List<scalar> 
100
(
0.9986
0.997729
0.996903
0.996095
0.995285
0.994462
0.993611
0.992711
0.99174
0.990635
0.98929
0.987528
0.98488
0.979696
0.963296
0.829168
0.170315
0.0503095
0.0499638
0.0502946
0.0498592
0.0496525
0.0499615
0.049968
0.0498563
0.04974
0.0496526
0.0500723
0.0498781
0.050083
0.0501526
0.0501684
0.0497585
0.050407
0.0504061
0.0502949
0.0497577
0.0501878
0.0500727
0.0495311
0.0503136
0.0498203
0.0499526
0.0500853
0.0500787
0.0498423
0.0499789
0.0504934
0.0497891
0.0501834
0.0496292
0.0501657
0.0499791
0.0505137
0.0501953
0.0501698
0.0498572
0.0498767
0.0503966
0.0501739
0.049638
0.0502722
0.0497555
0.0498539
0.0501636
0.0498508
0.0500718
0.0498782
0.0499721
0.0498713
0.0499578
0.0502093
0.0500627
0.0495216
0.0500808
0.0500835
0.0499666
0.0501514
0.0496346
0.0499714
0.0499796
0.0496354
0.0500749
0.0503053
0.0499613
0.049749
0.0497421
0.050073
0.0497151
0.0501693
0.0500662
0.0499404
0.0499654
0.0496372
0.0500687
0.0499405
0.049854
0.0499321
0.0497314
0.0498011
)
;

boundaryField
{
    inlet
    {
        type            calculated;
        value           uniform 1;
    }
    outlet
    {
        type            calculated;
        value           uniform 0.0498011;
    }
    yzfaces
    {
        type            empty;
    }
}


// ************************************************************************* //
