/*--------------------------------*- C++ -*----------------------------------*\
| =========                 |                                                 |
| \\      /  F ield         | foam-extend: Open Source CFD                    |
|  \\    /   O peration     | Version:     5.0                                |
|   \\  /    A nd           | Web:         http://www.foam-extend.org         |
|    \\/     M anipulation  |                                                 |
\*---------------------------------------------------------------------------*/
FoamFile
{
    version     2.0;
    format      ascii;
    class       volVectorField;
    location    "3";
    object      U.gas;
}
// * * * * * * * * * * * * * * * * * * * * * * * * * * * * * * * * * * * * * //

dimensions      [0 1 -1 0 0 0 0];

internalField   nonuniform List<vector> 
100
(
(0.000199478 0 0)
(0.000446833 0 0)
(0.000679518 0 0)
(0.000908934 0 0)
(0.0011368 0 0)
(0.00136732 0 0)
(0.00160311 0 0)
(0.00184945 0 0)
(0.00210992 0 0)
(0.00239288 0 0)
(0.00271923 0 0)
(0.003123 0 0)
(0.00366715 0 0)
(0.00455769 0 0)
(0.0068082 0 0)
(0.0114637 0 0)
(0.00512797 0 0)
(0.0052423 0 0)
(0.00523358 0 0)
(0.00526922 0 0)
(0.00529886 0 0)
(0.00522078 0 0)
(0.00518925 0 0)
(0.00525024 0 0)
(0.00521775 0 0)
(0.00510696 0 0)
(0.00501111 0 0)
(0.00502572 0 0)
(0.00505777 0 0)
(0.0050286 0 0)
(0.00502418 0 0)
(0.00507101 0 0)
(0.00502564 0 0)
(0.00505996 0 0)
(0.00521411 0 0)
(0.00521462 0 0)
(0.00513822 0 0)
(0.00514237 0 0)
(0.00518666 0 0)
(0.00505822 0 0)
(0.00507723 0 0)
(0.00511846 0 0)
(0.00507182 0 0)
(0.00515426 0 0)
(0.00517141 0 0)
(0.00513754 0 0)
(0.00515483 0 0)
(0.00524963 0 0)
(0.00521615 0 0)
(0.00522115 0 0)
(0.00520038 0 0)
(0.00523597 0 0)
(0.00532912 0 0)
(0.00540966 0 0)
(0.00553486 0 0)
(0.00552127 0 0)
(0.00545656 0 0)
(0.005411 0 0)
(0.00550762 0 0)
(0.00556797 0 0)
(0.00548782 0 0)
(0.00547324 0 0)
(0.00548626 0 0)
(0.00542569 0 0)
(0.00544171 0 0)
(0.00543877 0 0)
(0.00542528 0 0)
(0.00544296 0 0)
(0.00545889 0 0)
(0.00547486 0 0)
(0.00545988 0 0)
(0.00552304 0 0)
(0.00555202 0 0)
(0.00543874 0 0)
(0.00541258 0 0)
(0.00547479 0 0)
(0.00548862 0 0)
(0.00555212 0 0)
(0.00548726 0 0)
(0.00542844 0 0)
(0.00544448 0 0)
(0.00539515 0 0)
(0.00541195 0 0)
(0.00549097 0 0)
(0.00545824 0 0)
(0.0053302 0 0)
(0.00526495 0 0)
(0.00528067 0 0)
(0.00526328 0 0)
(0.00526517 0 0)
(0.00529548 0 0)
(0.00527951 0 0)
(0.00524973 0 0)
(0.0051539 0 0)
(0.0051552 0 0)
(0.00516949 0 0)
(0.00510661 0 0)
(0.00509 0 0)
(0.00499097 0 0)
(0.00497803 0 0)
)
;

boundaryField
{
    inlet
    {
        type            fixedValue;
        value           uniform (0 0 0);
    }
    outlet
    {
        type            zeroGradient;
    }
    yzfaces
    {
        type            empty;
    }
}


// ************************************************************************* //
