/*--------------------------------*- C++ -*----------------------------------*\
| =========                 |                                                 |
| \\      /  F ield         | foam-extend: Open Source CFD                    |
|  \\    /   O peration     | Version:     5.0                                |
|   \\  /    A nd           | Web:         http://www.foam-extend.org         |
|    \\/     M anipulation  |                                                 |
\*---------------------------------------------------------------------------*/
FoamFile
{
    version     2.0;
    format      ascii;
    class       surfaceScalarField;
    location    "6";
    object      phi;
}
// * * * * * * * * * * * * * * * * * * * * * * * * * * * * * * * * * * * * * //

dimensions      [0 3 -1 0 0 0 0];

internalField   nonuniform List<scalar> 
99
(
1.22541e-06
1.22469e-06
1.2312e-06
1.22476e-06
1.22766e-06
1.22204e-06
1.22652e-06
1.2222e-06
1.22848e-06
1.22895e-06
1.23197e-06
1.22864e-06
1.22795e-06
1.23476e-06
1.23326e-06
1.23362e-06
1.22589e-06
1.23072e-06
1.23176e-06
1.2304e-06
1.23202e-06
1.23501e-06
1.23064e-06
1.23536e-06
1.23288e-06
1.2325e-06
1.23357e-06
1.23149e-06
1.23401e-06
1.23425e-06
1.23378e-06
1.23117e-06
1.23482e-06
1.23609e-06
1.23166e-06
1.23395e-06
1.233e-06
1.22912e-06
1.23317e-06
1.23487e-06
1.23649e-06
1.23858e-06
1.2369e-06
1.23794e-06
1.24039e-06
1.24108e-06
1.24385e-06
1.23992e-06
1.24275e-06
1.23993e-06
1.24027e-06
1.24332e-06
1.23815e-06
1.23826e-06
1.23741e-06
1.23828e-06
1.23903e-06
1.23883e-06
1.23711e-06
1.23912e-06
1.23873e-06
1.23735e-06
1.23767e-06
1.23691e-06
1.23594e-06
1.23486e-06
1.23589e-06
1.24e-06
1.23443e-06
1.23655e-06
1.23802e-06
1.23787e-06
1.23557e-06
1.2364e-06
1.23472e-06
1.23558e-06
1.2334e-06
1.23425e-06
1.23426e-06
1.23285e-06
1.23308e-06
1.23191e-06
1.23207e-06
1.23326e-06
1.23245e-06
1.23275e-06
1.23316e-06
1.23404e-06
1.23424e-06
1.23299e-06
1.23256e-06
1.23204e-06
1.23235e-06
1.23113e-06
1.23222e-06
1.23163e-06
1.22962e-06
1.23051e-06
1.23095e-06
)
;

boundaryField
{
    inlet
    {
        type            calculated;
        value           uniform -1.225e-06;
    }
    outlet
    {
        type            calculated;
        value           uniform 1.23044e-06;
    }
    yzfaces
    {
        type            empty;
    }
}


// ************************************************************************* //
