/*--------------------------------*- C++ -*----------------------------------*\
| =========                 |                                                 |
| \\      /  F ield         | foam-extend: Open Source CFD                    |
|  \\    /   O peration     | Version:     5.0                                |
|   \\  /    A nd           | Web:         http://www.foam-extend.org         |
|    \\/     M anipulation  |                                                 |
\*---------------------------------------------------------------------------*/
FoamFile
{
    version     2.0;
    format      ascii;
    class       volScalarField;
    location    "8";
    object      S.gas;
}
// * * * * * * * * * * * * * * * * * * * * * * * * * * * * * * * * * * * * * //

dimensions      [0 0 0 0 0 0 0];

internalField   nonuniform List<scalar> 
100
(
0.000507716
0.000821321
0.00111408
0.00139719
0.00167463
0.00194767
0.00221957
0.00249082
0.0027615
0.00303077
0.00330025
0.00356943
0.00384023
0.00411142
0.00438481
0.00465783
0.0049368
0.00521252
0.00549691
0.00578016
0.00607381
0.00636722
0.00667455
0.00698336
0.00730799
0.00764478
0.00799688
0.00837151
0.00877853
0.00922257
0.0097333
0.0103212
0.0110481
0.012005
0.013368
0.0155437
0.0195281
0.0292533
0.0609659
0.149668
0.285322
0.423504
0.548384
0.654708
0.740139
0.809859
0.862428
0.897213
0.920912
0.934621
0.942969
0.945717
0.947609
0.948398
0.948576
0.949013
0.949322
0.949508
0.949351
0.949403
0.949263
0.949239
0.949669
0.949421
0.949662
0.950112
0.949558
0.94976
0.950055
0.950385
0.950375
0.950402
0.950221
0.950163
0.949812
0.95053
0.949979
0.950142
0.95007
0.950041
0.950215
0.950077
0.950897
0.95042
0.949752
0.950436
0.950129
0.949495
0.949606
0.949699
0.949471
0.949132
0.949516
0.949928
0.94892
0.949386
0.94892
0.948495
0.947843
0.946938
)
;

boundaryField
{
    inlet
    {
        type            calculated;
        value           uniform 0;
    }
    outlet
    {
        type            calculated;
        value           uniform 0.946938;
    }
    yzfaces
    {
        type            empty;
    }
}


// ************************************************************************* //
