/*--------------------------------*- C++ -*----------------------------------*\
| =========                 |                                                 |
| \\      /  F ield         | foam-extend: Open Source CFD                    |
|  \\    /   O peration     | Version:     5.0                                |
|   \\  /    A nd           | Web:         http://www.foam-extend.org         |
|    \\/     M anipulation  |                                                 |
\*---------------------------------------------------------------------------*/
FoamFile
{
    version     2.0;
    format      ascii;
    class       surfaceScalarField;
    location    "10";
    object      phi;
}
// * * * * * * * * * * * * * * * * * * * * * * * * * * * * * * * * * * * * * //

dimensions      [0 3 -1 0 0 0 0];

internalField   nonuniform List<scalar> 
99
(
1.22516e-06
1.22479e-06
1.22517e-06
1.22534e-06
1.22559e-06
1.22532e-06
1.22542e-06
1.22473e-06
1.22431e-06
1.22485e-06
1.22423e-06
1.22449e-06
1.22479e-06
1.22421e-06
1.22477e-06
1.22456e-06
1.2247e-06
1.22451e-06
1.22415e-06
1.22395e-06
1.22327e-06
1.22326e-06
1.22323e-06
1.22333e-06
1.22292e-06
1.22317e-06
1.22303e-06
1.223e-06
1.22316e-06
1.22322e-06
1.22262e-06
1.22265e-06
1.22215e-06
1.22183e-06
1.22207e-06
1.22229e-06
1.22178e-06
1.22184e-06
1.2213e-06
1.22103e-06
1.22123e-06
1.22085e-06
1.22036e-06
1.22063e-06
1.22137e-06
1.22105e-06
1.22113e-06
1.22153e-06
1.22102e-06
1.22169e-06
1.21796e-06
1.20708e-06
1.20699e-06
1.20699e-06
1.19209e-06
1.19209e-06
1.19209e-06
1.2219e-06
1.19209e-06
1.20699e-06
1.20699e-06
1.20699e-06
1.2368e-06
1.2219e-06
1.2219e-06
1.2219e-06
1.2368e-06
1.2368e-06
1.2219e-06
1.20699e-06
1.19209e-06
1.19209e-06
1.16229e-06
1.19209e-06
1.17719e-06
1.17719e-06
1.20699e-06
1.16229e-06
1.19209e-06
1.20699e-06
1.2219e-06
1.19209e-06
1.19209e-06
1.20699e-06
1.20699e-06
1.20699e-06
1.20699e-06
1.2368e-06
1.19209e-06
1.20699e-06
1.20699e-06
1.20699e-06
1.20699e-06
1.20699e-06
1.19209e-06
1.20699e-06
1.19209e-06
1.19209e-06
1.19209e-06
)
;

boundaryField
{
    inlet
    {
        type            calculated;
        value           uniform -1.225e-06;
    }
    outlet
    {
        type            calculated;
        value           uniform 1.19209e-06;
    }
    yzfaces
    {
        type            empty;
    }
}


// ************************************************************************* //
