/*--------------------------------*- C++ -*----------------------------------*\
| =========                 |                                                 |
| \\      /  F ield         | foam-extend: Open Source CFD                    |
|  \\    /   O peration     | Version:     5.0                                |
|   \\  /    A nd           | Web:         http://www.foam-extend.org         |
|    \\/     M anipulation  |                                                 |
\*---------------------------------------------------------------------------*/
FoamFile
{
    version     2.0;
    format      ascii;
    class       volVectorField;
    location    "10";
    object      U.gas;
}
// * * * * * * * * * * * * * * * * * * * * * * * * * * * * * * * * * * * * * //

dimensions      [0 1 -1 0 0 0 0];

internalField   nonuniform List<vector> 
100
(
(5.32424e-05 0 0)
(0.000119151 0 0)
(0.000180597 0 0)
(0.000239804 0 0)
(0.000298446 0 0)
(0.000355361 0 0)
(0.00041111 0 0)
(0.000466653 0 0)
(0.000522121 0 0)
(0.000577668 0 0)
(0.000631992 0 0)
(0.000686731 0 0)
(0.000741896 0 0)
(0.000797162 0 0)
(0.000853566 0 0)
(0.000908219 0 0)
(0.00096312 0 0)
(0.00102036 0 0)
(0.00107455 0 0)
(0.00113022 0 0)
(0.001187 0 0)
(0.00124203 0 0)
(0.00129707 0 0)
(0.00135571 0 0)
(0.00141441 0 0)
(0.00147256 0 0)
(0.00152758 0 0)
(0.00158276 0 0)
(0.00164142 0 0)
(0.00170115 0 0)
(0.00176108 0 0)
(0.00182655 0 0)
(0.0018951 0 0)
(0.00196398 0 0)
(0.00203547 0 0)
(0.00210878 0 0)
(0.00218169 0 0)
(0.00225749 0 0)
(0.0023398 0 0)
(0.00242632 0 0)
(0.00252158 0 0)
(0.00262679 0 0)
(0.00274682 0 0)
(0.00288511 0 0)
(0.00306034 0 0)
(0.00329515 0 0)
(0.00364629 0 0)
(0.0042535 0 0)
(0.00561656 0 0)
(0.0107096 0 0)
(0.00518628 0 0)
(0.00494533 0 0)
(0.00492668 0 0)
(0.00492651 0 0)
(0.0048961 0 0)
(0.00486569 0 0)
(0.00486569 0 0)
(0.00492651 0 0)
(0.00492651 0 0)
(0.0048961 0 0)
(0.00492651 0 0)
(0.00492651 0 0)
(0.00498733 0 0)
(0.00501774 0 0)
(0.00498733 0 0)
(0.00498733 0 0)
(0.00501774 0 0)
(0.00504815 0 0)
(0.00501774 0 0)
(0.00495692 0 0)
(0.0048961 0 0)
(0.00486569 0 0)
(0.00480486 0 0)
(0.00480486 0 0)
(0.00483527 0 0)
(0.00480486 0 0)
(0.00486569 0 0)
(0.00483527 0 0)
(0.00480486 0 0)
(0.0048961 0 0)
(0.00495692 0 0)
(0.00492651 0 0)
(0.00486569 0 0)
(0.0048961 0 0)
(0.00492651 0 0)
(0.00492651 0 0)
(0.00492651 0 0)
(0.00498733 0 0)
(0.00495692 0 0)
(0.0048961 0 0)
(0.00492651 0 0)
(0.00492651 0 0)
(0.00492651 0 0)
(0.00492651 0 0)
(0.0048961 0 0)
(0.0048961 0 0)
(0.0048961 0 0)
(0.00486569 0 0)
(0.00486569 0 0)
(0.00486569 0 0)
)
;

boundaryField
{
    inlet
    {
        type            fixedValue;
        value           uniform (0 0 0);
    }
    outlet
    {
        type            zeroGradient;
    }
    yzfaces
    {
        type            empty;
    }
}


// ************************************************************************* //
