/*--------------------------------*- C++ -*----------------------------------*\
| =========                 |                                                 |
| \\      /  F ield         | foam-extend: Open Source CFD                    |
|  \\    /   O peration     | Version:     5.0                                |
|   \\  /    A nd           | Web:         http://www.foam-extend.org         |
|    \\/     M anipulation  |                                                 |
\*---------------------------------------------------------------------------*/
FoamFile
{
    version     2.0;
    format      ascii;
    class       surfaceScalarField;
    location    "9";
    object      phi;
}
// * * * * * * * * * * * * * * * * * * * * * * * * * * * * * * * * * * * * * //

dimensions      [0 3 -1 0 0 0 0];

internalField   nonuniform List<scalar> 
99
(
1.22227e-06
1.22365e-06
1.23275e-06
1.22696e-06
1.22789e-06
1.23013e-06
1.23238e-06
1.22683e-06
1.23448e-06
1.23171e-06
1.22937e-06
1.23158e-06
1.23236e-06
1.238e-06
1.24137e-06
1.23627e-06
1.23739e-06
1.24103e-06
1.2373e-06
1.23154e-06
1.23696e-06
1.23141e-06
1.23372e-06
1.23408e-06
1.23529e-06
1.2344e-06
1.23038e-06
1.23512e-06
1.23134e-06
1.23256e-06
1.22946e-06
1.23489e-06
1.23055e-06
1.23103e-06
1.23495e-06
1.23204e-06
1.23345e-06
1.23344e-06
1.2337e-06
1.23073e-06
1.2304e-06
1.23008e-06
1.23136e-06
1.22721e-06
1.22848e-06
1.23261e-06
1.2258e-06
1.2268e-06
1.2271e-06
1.22828e-06
1.22484e-06
1.22681e-06
1.22295e-06
1.22689e-06
1.22889e-06
1.23532e-06
1.23175e-06
1.23024e-06
1.2339e-06
1.23533e-06
1.23012e-06
1.23674e-06
1.23088e-06
1.23309e-06
1.2339e-06
1.23257e-06
1.23505e-06
1.23224e-06
1.23429e-06
1.23321e-06
1.2346e-06
1.23488e-06
1.23928e-06
1.23601e-06
1.23788e-06
1.23647e-06
1.23494e-06
1.2357e-06
1.23721e-06
1.23633e-06
1.23699e-06
1.23754e-06
1.2392e-06
1.23809e-06
1.23868e-06
1.23902e-06
1.23812e-06
1.23788e-06
1.23877e-06
1.23947e-06
1.23788e-06
1.23873e-06
1.23878e-06
1.23974e-06
1.24148e-06
1.23896e-06
1.23958e-06
1.24151e-06
1.23936e-06
)
;

boundaryField
{
    inlet
    {
        type            calculated;
        value           uniform -1.225e-06;
    }
    outlet
    {
        type            calculated;
        value           uniform 1.24079e-06;
    }
    yzfaces
    {
        type            empty;
    }
}


// ************************************************************************* //
