/*--------------------------------*- C++ -*----------------------------------*\
| =========                 |                                                 |
| \\      /  F ield         | foam-extend: Open Source CFD                    |
|  \\    /   O peration     | Version:     5.0                                |
|   \\  /    A nd           | Web:         http://www.foam-extend.org         |
|    \\/     M anipulation  |                                                 |
\*---------------------------------------------------------------------------*/
FoamFile
{
    version     2.0;
    format      ascii;
    class       volScalarField;
    location    "9";
    object      YH2O;
}
// * * * * * * * * * * * * * * * * * * * * * * * * * * * * * * * * * * * * * //

dimensions      [0 0 0 0 0 0 0];

internalField   nonuniform List<scalar> 
100
(
-0.00384383
0.00192132
0.00510629
-0.00117643
0.00221655
-0.00499977
0.00463068
-0.00280888
-6.74572e-06
0.00214575
-0.00798174
0.00811442
-0.00863124
0.010401
-0.00495428
0.0116996
-0.00543006
0.00938483
-0.00595816
0.0109373
-0.00878222
0.0104416
-0.00812283
0.00851427
-0.00348458
0.00394705
-0.00230372
0.000224839
0.000413683
-0.000426318
-0.000597964
0.00285741
-0.000379237
0.000273879
-0.00137371
0.000705533
0.0013149
0.000843168
-6.33423e-05
0.00119724
-0.00241507
0.000644035
0.000329374
0.00129674
-0.00195453
0.00176692
0.000403924
0.000700332
0.00115097
-0.000680098
0.00150605
0.00144591
-0.00115341
0.000416908
0.00132879
-0.000855215
0.000558274
0.00166187
0.00315091
0.000941655
0.000716129
-0.00263092
-0.00161391
-0.00245154
-0.00160713
-0.00327475
-0.00110624
-0.0029788
-0.00359875
-0.00135583
-0.00412335
-0.00106746
-0.00379576
-0.00127481
-0.00255125
-0.00162673
-0.000704591
-0.0021287
-0.00186829
-0.00294162
1.7457e-06
-0.000727746
0.000896765
-0.00065971
0.00086171
-0.00195857
0.00163834
-0.00283459
0.00293656
-0.00191167
0.00132011
-0.00111708
0.00173008
-0.00207567
-0.00129143
2.99574e-05
0.000712486
0.000130053
-0.000378261
2.73771e-05
)
;

boundaryField
{
    inlet
    {
        type            calculated;
        value           uniform 0;
    }
    outlet
    {
        type            calculated;
        value           uniform 2.73771e-05;
    }
    yzfaces
    {
        type            empty;
    }
}


// ************************************************************************* //
