/*--------------------------------*- C++ -*----------------------------------*\
| =========                 |                                                 |
| \\      /  F ield         | foam-extend: Open Source CFD                    |
|  \\    /   O peration     | Version:     5.0                                |
|   \\  /    A nd           | Web:         http://www.foam-extend.org         |
|    \\/     M anipulation  |                                                 |
\*---------------------------------------------------------------------------*/
FoamFile
{
    version     2.0;
    format      ascii;
    class       volScalarField;
    location    "5";
    object      alpha.gas;
}
// * * * * * * * * * * * * * * * * * * * * * * * * * * * * * * * * * * * * * //

dimensions      [0 0 0 0 0 0 0];

internalField   nonuniform List<scalar> 
100
(
0.0839806
0.0823455
0.0807224
0.0792575
0.0777632
0.0764271
0.0749857
0.0736813
0.0723169
0.0710436
0.0698498
0.0686361
0.0675047
0.0663957
0.0653306
0.0642993
0.0632713
0.0623286
0.0613113
0.0604372
0.0595566
0.0586116
0.0577752
0.0569684
0.0561525
0.0553751
0.0545261
0.0538983
0.0531256
0.0524943
0.0518976
0.0511968
0.0505464
0.049928
0.0492966
0.0487101
0.0481968
0.047672
0.0471498
0.0466545
0.0461195
0.0456297
0.045207
0.0447346
0.044237
0.0437924
0.0433399
0.0429384
0.0425036
0.0420968
0.0417002
0.041299
0.040909
0.040524
0.0401548
0.039784
0.0394481
0.0391097
0.0387536
0.0383924
0.0380655
0.0377434
0.0374158
0.03709
0.0367781
0.0364544
0.0361227
0.0358178
0.0355361
0.035205
0.0348888
0.0345974
0.0343025
0.0340112
0.0337163
0.0334011
0.0331126
0.0328472
0.0325462
0.0322732
0.0320009
0.0317166
0.0314392
0.0311484
0.0308573
0.0305812
0.030323
0.0300399
0.0297782
0.0295122
0.0292109
0.0289134
0.0286521
0.0283457
0.0280561
0.0277656
0.0274685
0.027175
0.026918
0.0267253
)
;

boundaryField
{
    inlet
    {
        type            fixedValue;
        value           uniform 0.2;
    }
    outlet
    {
        type            zeroGradient;
    }
    yzfaces
    {
        type            empty;
    }
}


// ************************************************************************* //
