/*--------------------------------*- C++ -*----------------------------------*\
| =========                 |                                                 |
| \\      /  F ield         | foam-extend: Open Source CFD                    |
|  \\    /   O peration     | Version:     5.0                                |
|   \\  /    A nd           | Web:         http://www.foam-extend.org         |
|    \\/     M anipulation  |                                                 |
\*---------------------------------------------------------------------------*/
FoamFile
{
    version     2.0;
    format      ascii;
    class       volScalarField;
    location    "5";
    object      CO2.gas;
}
// * * * * * * * * * * * * * * * * * * * * * * * * * * * * * * * * * * * * * //

dimensions      [0 0 0 0 0 0 0];

internalField   nonuniform List<scalar> 
100
(
0.0419912
0.0411738
0.0403429
0.0396076
0.0388433
0.0382138
0.0374735
0.0368386
0.0361414
0.0354767
0.03491
0.0342957
0.0337282
0.033156
0.0326304
0.0321193
0.0316005
0.0311422
0.0306095
0.0301952
0.029745
0.0292572
0.0288339
0.0284328
0.0280442
0.0276758
0.0272421
0.0269364
0.0265485
0.0262418
0.0259484
0.0255815
0.0252609
0.0249566
0.0246312
0.0243342
0.0240817
0.0238187
0.0235515
0.0233093
0.023041
0.0227955
0.0225912
0.0223591
0.022107
0.0218801
0.0216463
0.021454
0.0212379
0.0210367
0.0208424
0.0206372
0.0204466
0.0202532
0.020076
0.0198866
0.0197219
0.0195563
0.019375
0.0191897
0.0190283
0.0188675
0.0187036
0.0185402
0.0183882
0.0182286
0.0180589
0.017903
0.0177658
0.0175975
0.0174405
0.0172969
0.0171468
0.0170014
0.0168531
0.016696
0.0165546
0.0164265
0.0162734
0.0161424
0.0160067
0.0158629
0.0157236
0.0155774
0.0154278
0.0152893
0.015163
0.0150199
0.0148906
0.0147577
0.0146049
0.0144583
0.0143295
0.0141736
0.0140282
0.0138849
0.0137388
0.013594
0.0134658
0.0133674
)
;

boundaryField
{
    inlet
    {
        type            fixedValue;
        value           uniform 0.1;
    }
    outlet
    {
        type            zeroGradient;
    }
    yzfaces
    {
        type            empty;
    }
}


// ************************************************************************* //
