/*--------------------------------*- C++ -*----------------------------------*\
| =========                 |                                                 |
| \\      /  F ield         | foam-extend: Open Source CFD                    |
|  \\    /   O peration     | Version:     5.0                                |
|   \\  /    A nd           | Web:         http://www.foam-extend.org         |
|    \\/     M anipulation  |                                                 |
\*---------------------------------------------------------------------------*/
FoamFile
{
    version     2.0;
    format      ascii;
    class       volScalarField;
    location    "5";
    object      H2O.gas;
}
// * * * * * * * * * * * * * * * * * * * * * * * * * * * * * * * * * * * * * //

dimensions      [0 0 0 0 0 0 0];

internalField   nonuniform List<scalar> 
100
(
0.0419879
0.0411855
0.0403735
0.0396522
0.0388932
0.038248
0.0375041
0.0368484
0.0361776
0.035562
0.034958
0.034344
0.0337952
0.0332465
0.0326988
0.032178
0.0316708
0.0311926
0.0306866
0.0302458
0.029825
0.0293412
0.0289297
0.0285329
0.0281069
0.0277116
0.0272671
0.0269766
0.0265715
0.0262548
0.0259696
0.0256116
0.0252814
0.0249735
0.0246618
0.0243726
0.0241222
0.0238606
0.0236022
0.0233553
0.0230759
0.0228305
0.0226276
0.022388
0.0221277
0.0219123
0.0216912
0.0214903
0.0212651
0.0210583
0.0208622
0.0206637
0.0204635
0.0202693
0.0200771
0.0198941
0.0197301
0.0195605
0.0193821
0.0192
0.0190367
0.0188798
0.0187134
0.0185528
0.018395
0.0182268
0.018058
0.0179104
0.017771
0.0176036
0.0174454
0.0173042
0.0171594
0.0170121
0.0168621
0.0167016
0.0165551
0.016421
0.0162664
0.0161299
0.0159965
0.0158549
0.0157178
0.0155708
0.0154272
0.0152902
0.0151629
0.0150197
0.0148904
0.0147559
0.0146031
0.0144521
0.0143252
0.0141705
0.0140278
0.0138809
0.013729
0.0135803
0.0134527
0.0133591
)
;

boundaryField
{
    inlet
    {
        type            fixedValue;
        value           uniform 0.1;
    }
    outlet
    {
        type            zeroGradient;
    }
    yzfaces
    {
        type            empty;
    }
}


// ************************************************************************* //
