/*--------------------------------*- C++ -*----------------------------------*\
| =========                 |                                                 |
| \\      /  F ield         | foam-extend: Open Source CFD                    |
|  \\    /   O peration     | Version:     5.0                                |
|   \\  /    A nd           | Web:         http://www.foam-extend.org         |
|    \\/     M anipulation  |                                                 |
\*---------------------------------------------------------------------------*/
FoamFile
{
    version     2.0;
    format      ascii;
    class       surfaceScalarField;
    location    "5";
    object      phi;
}
// * * * * * * * * * * * * * * * * * * * * * * * * * * * * * * * * * * * * * //

dimensions      [0 3 -1 0 0 0 0];

internalField   nonuniform List<scalar> 
99
(
1.22521e-06
1.22639e-06
1.22457e-06
1.22467e-06
1.23168e-06
1.22001e-06
1.22679e-06
1.22426e-06
1.22792e-06
1.22857e-06
1.22715e-06
1.22794e-06
1.22448e-06
1.22242e-06
1.22268e-06
1.22409e-06
1.22244e-06
1.22138e-06
1.22453e-06
1.22323e-06
1.21677e-06
1.22244e-06
1.22373e-06
1.22537e-06
1.22659e-06
1.22125e-06
1.22671e-06
1.22109e-06
1.2243e-06
1.22419e-06
1.21815e-06
1.22113e-06
1.22229e-06
1.21875e-06
1.21949e-06
1.21935e-06
1.21833e-06
1.21728e-06
1.21746e-06
1.21357e-06
1.21549e-06
1.21747e-06
1.21347e-06
1.20871e-06
1.21221e-06
1.21118e-06
1.2139e-06
1.21123e-06
1.21145e-06
1.21243e-06
1.2111e-06
1.21031e-06
1.20999e-06
1.21115e-06
1.21134e-06
1.21338e-06
1.21199e-06
1.21056e-06
1.20943e-06
1.21131e-06
1.21187e-06
1.21022e-06
1.21057e-06
1.2091e-06
1.20748e-06
1.20692e-06
1.21003e-06
1.21126e-06
1.21025e-06
1.21138e-06
1.21352e-06
1.21115e-06
1.21013e-06
1.20944e-06
1.21012e-06
1.21204e-06
1.21317e-06
1.21235e-06
1.2165e-06
1.21594e-06
1.21462e-06
1.2147e-06
1.214e-06
1.21417e-06
1.21501e-06
1.21636e-06
1.21348e-06
1.21489e-06
1.21316e-06
1.21253e-06
1.214e-06
1.21606e-06
1.21313e-06
1.21542e-06
1.2152e-06
1.21497e-06
1.21542e-06
1.21605e-06
1.21678e-06
)
;

boundaryField
{
    inlet
    {
        type            calculated;
        value           uniform -1.225e-06;
    }
    outlet
    {
        type            calculated;
        value           uniform 1.21597e-06;
    }
    yzfaces
    {
        type            empty;
    }
}


// ************************************************************************* //
