/*--------------------------------*- C++ -*----------------------------------*\
| =========                 |                                                 |
| \\      /  F ield         | foam-extend: Open Source CFD                    |
|  \\    /   O peration     | Version:     5.0                                |
|   \\  /    A nd           | Web:         http://www.foam-extend.org         |
|    \\/     M anipulation  |                                                 |
\*---------------------------------------------------------------------------*/
FoamFile
{
    version     2.0;
    format      ascii;
    class       volVectorField;
    location    "5";
    object      U.gas;
}
// * * * * * * * * * * * * * * * * * * * * * * * * * * * * * * * * * * * * * //

dimensions      [0 1 -1 0 0 0 0];

internalField   nonuniform List<vector> 
100
(
(0.0118948 0 0)
(0.0121104 0 0)
(0.0123049 0 0)
(0.012481 0 0)
(0.0127124 0 0)
(0.012875 0 0)
(0.0130608 0 0)
(0.0132697 0 0)
(0.0134856 0 0)
(0.0136891 0 0)
(0.0138714 0 0)
(0.0140636 0 0)
(0.0142259 0 0)
(0.014377 0 0)
(0.0145425 0 0)
(0.0147325 0 0)
(0.0149074 0 0)
(0.0150642 0 0)
(0.0152619 0 0)
(0.0154166 0 0)
(0.0155531 0 0)
(0.01573 0 0)
(0.015917 0 0)
(0.0160972 0 0)
(0.0162801 0 0)
(0.0164218 0 0)
(0.0165799 0 0)
(0.0166898 0 0)
(0.016848 0 0)
(0.0169679 0 0)
(0.0170691 0 0)
(0.0172186 0 0)
(0.0173727 0 0)
(0.01749 0 0)
(0.0176083 0 0)
(0.0177204 0 0)
(0.017812 0 0)
(0.0179195 0 0)
(0.0180274 0 0)
(0.0181144 0 0)
(0.018224 0 0)
(0.0183394 0 0)
(0.0184127 0 0)
(0.0184756 0 0)
(0.0185769 0 0)
(0.0186827 0 0)
(0.0187911 0 0)
(0.018876 0 0)
(0.0189615 0 0)
(0.0190522 0 0)
(0.0191385 0 0)
(0.0192111 0 0)
(0.0192856 0 0)
(0.0193755 0 0)
(0.0194636 0 0)
(0.0195562 0 0)
(0.0196257 0 0)
(0.0196844 0 0)
(0.0197484 0 0)
(0.0198266 0 0)
(0.0199034 0 0)
(0.0199619 0 0)
(0.0200228 0 0)
(0.0200775 0 0)
(0.0201134 0 0)
(0.0201698 0 0)
(0.0202548 0 0)
(0.0203337 0 0)
(0.0203935 0 0)
(0.0204769 0 0)
(0.0205532 0 0)
(0.020598 0 0)
(0.0206247 0 0)
(0.0206619 0 0)
(0.0207193 0 0)
(0.0207981 0 0)
(0.0208559 0 0)
(0.0209021 0 0)
(0.0209896 0 0)
(0.0210497 0 0)
(0.0210795 0 0)
(0.0211162 0 0)
(0.0211502 0 0)
(0.021193 0 0)
(0.0212365 0 0)
(0.0212772 0 0)
(0.0212946 0 0)
(0.0213242 0 0)
(0.0213401 0 0)
(0.0213589 0 0)
(0.0214117 0 0)
(0.0214574 0 0)
(0.0214647 0 0)
(0.0215059 0 0)
(0.0215339 0 0)
(0.021551 0 0)
(0.0215706 0 0)
(0.0215796 0 0)
(0.0215634 0 0)
(0.0214791 0 0)
)
;

boundaryField
{
    inlet
    {
        type            fixedValue;
        value           uniform (0.005 0 0);
    }
    outlet
    {
        type            zeroGradient;
    }
    yzfaces
    {
        type            empty;
    }
}


// ************************************************************************* //
