/*--------------------------------*- C++ -*----------------------------------*\
| =========                 |                                                 |
| \\      /  F ield         | foam-extend: Open Source CFD                    |
|  \\    /   O peration     | Version:     5.0                                |
|   \\  /    A nd           | Web:         http://www.foam-extend.org         |
|    \\/     M anipulation  |                                                 |
\*---------------------------------------------------------------------------*/
FoamFile
{
    version     2.0;
    format      ascii;
    class       volVectorField;
    location    "5";
    object      U.water;
}
// * * * * * * * * * * * * * * * * * * * * * * * * * * * * * * * * * * * * * //

dimensions      [0 1 -1 0 0 0 0];

internalField   nonuniform List<vector> 
100
(
(9.89163e-06 0 0)
(2.90398e-05 0 0)
(5.96043e-05 0 0)
(8.67403e-05 0 0)
(0.000114807 0 0)
(0.000135067 0 0)
(0.000154541 0 0)
(0.00017972 0 0)
(0.000200918 0 0)
(0.000233614 0 0)
(0.000256783 0 0)
(0.000280211 0 0)
(0.000306981 0 0)
(0.000330588 0 0)
(0.000355907 0 0)
(0.000378717 0 0)
(0.000405001 0 0)
(0.000425265 0 0)
(0.000451366 0 0)
(0.000482536 0 0)
(0.000495741 0 0)
(0.000520811 0 0)
(0.000554239 0 0)
(0.000577481 0 0)
(0.000602249 0 0)
(0.000620636 0 0)
(0.000653939 0 0)
(0.000681397 0 0)
(0.000701691 0 0)
(0.000736695 0 0)
(0.00074968 0 0)
(0.000766728 0 0)
(0.000797491 0 0)
(0.000820293 0 0)
(0.000843836 0 0)
(0.000874368 0 0)
(0.000899119 0 0)
(0.000918198 0 0)
(0.000940692 0 0)
(0.000959552 0 0)
(0.000981077 0 0)
(0.00101199 0 0)
(0.00103261 0 0)
(0.00104431 0 0)
(0.00106792 0 0)
(0.00109458 0 0)
(0.00111979 0 0)
(0.00114185 0 0)
(0.0011614 0 0)
(0.00118617 0 0)
(0.00120729 0 0)
(0.00122828 0 0)
(0.00125037 0 0)
(0.00127321 0 0)
(0.00129633 0 0)
(0.00132108 0 0)
(0.00134379 0 0)
(0.00136085 0 0)
(0.00137947 0 0)
(0.00140383 0 0)
(0.00142911 0 0)
(0.0014494 0 0)
(0.00146945 0 0)
(0.00149131 0 0)
(0.00151098 0 0)
(0.0015298 0 0)
(0.00155513 0 0)
(0.00158344 0 0)
(0.00160317 0 0)
(0.00162341 0 0)
(0.00165148 0 0)
(0.00167484 0 0)
(0.00169463 0 0)
(0.00171601 0 0)
(0.00173798 0 0)
(0.00176448 0 0)
(0.00179337 0 0)
(0.00181532 0 0)
(0.00184072 0 0)
(0.00186905 0 0)
(0.0018899 0 0)
(0.0019124 0 0)
(0.00193616 0 0)
(0.00196007 0 0)
(0.00198766 0 0)
(0.00201697 0 0)
(0.0020395 0 0)
(0.0020628 0 0)
(0.00208886 0 0)
(0.00210998 0 0)
(0.00213692 0 0)
(0.00217112 0 0)
(0.00219726 0 0)
(0.00222333 0 0)
(0.00225614 0 0)
(0.00228483 0 0)
(0.00231542 0 0)
(0.00234927 0 0)
(0.00238353 0 0)
(0.00241769 0 0)
)
;

boundaryField
{
    inlet
    {
        type            fixedValue;
        value           uniform (0 0 0);
    }
    outlet
    {
        type            zeroGradient;
    }
    yzfaces
    {
        type            empty;
    }
}


// ************************************************************************* //
