/*--------------------------------*- C++ -*----------------------------------*\
| =========                 |                                                 |
| \\      /  F ield         | foam-extend: Open Source CFD                    |
|  \\    /   O peration     | Version:     5.0                                |
|   \\  /    A nd           | Web:         http://www.foam-extend.org         |
|    \\/     M anipulation  |                                                 |
\*---------------------------------------------------------------------------*/
FoamFile
{
    version     2.0;
    format      ascii;
    class       volScalarField;
    location    "4";
    object      alpha.gas;
}
// * * * * * * * * * * * * * * * * * * * * * * * * * * * * * * * * * * * * * //

dimensions      [0 0 0 0 0 0 0];

internalField   nonuniform List<scalar> 
100
(
0.0812635
0.0795681
0.0778067
0.0760098
0.0742653
0.0727713
0.0713758
0.0700186
0.0685941
0.0671854
0.0657732
0.0644357
0.063289
0.0620873
0.0610099
0.0599861
0.0589192
0.0578818
0.0569575
0.0560318
0.0550988
0.054185
0.0533533
0.0525189
0.0516798
0.0509639
0.0501468
0.0493953
0.0486647
0.0479538
0.0472706
0.0466964
0.0460329
0.0453278
0.0447918
0.0442141
0.0436447
0.0431291
0.0426271
0.04208
0.0416449
0.0411413
0.0406576
0.0401802
0.0397749
0.0392978
0.0388394
0.0383795
0.038005
0.0375846
0.0371244
0.036743
0.0363233
0.0359779
0.0355643
0.0352022
0.0347844
0.0343615
0.0340173
0.0337199
0.0333149
0.0329804
0.032629
0.0322917
0.0319091
0.0315912
0.0311917
0.0308672
0.03049
0.0301137
0.0297278
0.029421
0.02907
0.0287111
0.0283321
0.0279617
0.0275829
0.0271828
0.0267822
0.0263974
0.0259884
0.0255226
0.0250624
0.0245712
0.0240623
0.0235169
0.022922
0.0222622
0.0215578
0.020737
0.0198159
0.0187363
0.0174556
0.0158853
0.0139289
0.0114303
0.00829311
0.00464084
0.00147059
0.000140003
)
;

boundaryField
{
    inlet
    {
        type            fixedValue;
        value           uniform 0.2;
    }
    outlet
    {
        type            zeroGradient;
    }
    yzfaces
    {
        type            empty;
    }
}


// ************************************************************************* //
