/*--------------------------------*- C++ -*----------------------------------*\
| =========                 |                                                 |
| \\      /  F ield         | foam-extend: Open Source CFD                    |
|  \\    /   O peration     | Version:     5.0                                |
|   \\  /    A nd           | Web:         http://www.foam-extend.org         |
|    \\/     M anipulation  |                                                 |
\*---------------------------------------------------------------------------*/
FoamFile
{
    version     2.0;
    format      ascii;
    class       volScalarField;
    location    "4";
    object      CO2.gas;
}
// * * * * * * * * * * * * * * * * * * * * * * * * * * * * * * * * * * * * * //

dimensions      [0 0 0 0 0 0 0];

internalField   nonuniform List<scalar> 
100
(
0.040609
0.0397992
0.0389829
0.0380292
0.0371196
0.0363645
0.0356687
0.0349996
0.0342986
0.0336053
0.0328643
0.0321734
0.0316298
0.0310139
0.0304802
0.0299713
0.0294453
0.028917
0.0284503
0.0279908
0.0275199
0.0270644
0.0266569
0.0262395
0.0258115
0.0254629
0.0250503
0.0246774
0.0243069
0.023949
0.0236101
0.0233372
0.0229972
0.0226286
0.0223716
0.0220898
0.0218009
0.0215514
0.0213062
0.0210276
0.0208135
0.0205651
0.0203292
0.0200865
0.0198863
0.0196341
0.0194018
0.0191667
0.018985
0.0187797
0.018547
0.0183615
0.0181498
0.0179856
0.0177766
0.0176018
0.0173975
0.017181
0.0170146
0.016873
0.0166633
0.0165012
0.0163283
0.0161633
0.0159686
0.0158088
0.0156013
0.0154385
0.0152447
0.0150561
0.0148646
0.0147149
0.01454
0.0143627
0.0141716
0.0139833
0.0137907
0.0135885
0.0133857
0.0131982
0.0129952
0.0127572
0.0125278
0.0122815
0.0120279
0.0117576
0.011459
0.0111289
0.0107778
0.0103646
0.00990388
0.00936568
0.00872706
0.00794209
0.00696366
0.0057135
0.00414615
0.00231985
0.000735027
7.00002e-05
)
;

boundaryField
{
    inlet
    {
        type            fixedValue;
        value           uniform 0.1;
    }
    outlet
    {
        type            zeroGradient;
    }
    yzfaces
    {
        type            empty;
    }
}


// ************************************************************************* //
