/*--------------------------------*- C++ -*----------------------------------*\
| =========                 |                                                 |
| \\      /  F ield         | foam-extend: Open Source CFD                    |
|  \\    /   O peration     | Version:     5.0                                |
|   \\  /    A nd           | Web:         http://www.foam-extend.org         |
|    \\/     M anipulation  |                                                 |
\*---------------------------------------------------------------------------*/
FoamFile
{
    version     2.0;
    format      ascii;
    class       volScalarField;
    location    "4";
    object      H2O.gas;
}
// * * * * * * * * * * * * * * * * * * * * * * * * * * * * * * * * * * * * * //

dimensions      [0 0 0 0 0 0 0];

internalField   nonuniform List<scalar> 
100
(
0.0406445
0.039794
0.0388643
0.0380076
0.0371156
0.036357
0.0357139
0.035063
0.034315
0.0336064
0.0328906
0.032216
0.0316618
0.0310472
0.0305225
0.030026
0.0294737
0.0289497
0.0285037
0.0280469
0.0275757
0.0271151
0.0266989
0.0262888
0.0258737
0.0255246
0.0250979
0.0247221
0.0243556
0.0239903
0.0236444
0.0233824
0.0230499
0.0226839
0.0224254
0.0221234
0.0218332
0.0215757
0.02132
0.0210379
0.0208343
0.0205793
0.0203283
0.0200894
0.0198964
0.0196625
0.0194323
0.019203
0.0190278
0.0188108
0.0185706
0.0183811
0.0181682
0.0179994
0.0177876
0.0176053
0.0173827
0.0171658
0.0169976
0.0168565
0.016645
0.0164799
0.0163031
0.0161353
0.0159397
0.0157861
0.0155836
0.0154315
0.0152415
0.0150507
0.0148527
0.014709
0.0145332
0.0143521
0.0141605
0.0139781
0.0137891
0.0135897
0.0133914
0.0132025
0.0130011
0.0127653
0.0125337
0.012287
0.0120324
0.0117596
0.0114639
0.0111333
0.0107839
0.0103715
0.00991199
0.00937105
0.0087295
0.00794419
0.00696673
0.00571637
0.0041486
0.00232126
0.000735432
7.00145e-05
)
;

boundaryField
{
    inlet
    {
        type            fixedValue;
        value           uniform 0.1;
    }
    outlet
    {
        type            zeroGradient;
    }
    yzfaces
    {
        type            empty;
    }
}


// ************************************************************************* //
