/*--------------------------------*- C++ -*----------------------------------*\
| =========                 |                                                 |
| \\      /  F ield         | foam-extend: Open Source CFD                    |
|  \\    /   O peration     | Version:     5.0                                |
|   \\  /    A nd           | Web:         http://www.foam-extend.org         |
|    \\/     M anipulation  |                                                 |
\*---------------------------------------------------------------------------*/
FoamFile
{
    version     2.0;
    format      ascii;
    class       surfaceScalarField;
    location    "4";
    object      phi;
}
// * * * * * * * * * * * * * * * * * * * * * * * * * * * * * * * * * * * * * //

dimensions      [0 3 -1 0 0 0 0];

internalField   nonuniform List<scalar> 
99
(
1.22695e-06
1.22599e-06
1.22517e-06
1.21627e-06
1.21805e-06
1.22374e-06
1.22739e-06
1.22324e-06
1.22586e-06
1.22026e-06
1.2228e-06
1.22847e-06
1.22564e-06
1.22992e-06
1.23095e-06
1.22785e-06
1.22729e-06
1.22793e-06
1.23005e-06
1.22819e-06
1.22865e-06
1.2283e-06
1.22958e-06
1.22738e-06
1.22806e-06
1.22345e-06
1.22388e-06
1.22417e-06
1.22206e-06
1.22586e-06
1.22959e-06
1.2231e-06
1.21928e-06
1.22551e-06
1.22194e-06
1.22144e-06
1.22334e-06
1.22268e-06
1.2215e-06
1.22594e-06
1.22404e-06
1.22349e-06
1.22286e-06
1.22486e-06
1.22187e-06
1.22207e-06
1.22347e-06
1.22714e-06
1.22378e-06
1.22225e-06
1.22527e-06
1.22435e-06
1.22722e-06
1.22351e-06
1.22554e-06
1.22243e-06
1.22263e-06
1.22794e-06
1.22884e-06
1.22306e-06
1.22778e-06
1.22637e-06
1.22626e-06
1.22357e-06
1.22573e-06
1.22278e-06
1.22783e-06
1.22368e-06
1.22577e-06
1.22657e-06
1.23099e-06
1.22888e-06
1.22774e-06
1.22605e-06
1.2269e-06
1.22633e-06
1.22729e-06
1.22732e-06
1.23069e-06
1.2292e-06
1.22461e-06
1.22668e-06
1.22628e-06
1.22758e-06
1.22776e-06
1.22733e-06
1.22648e-06
1.22812e-06
1.2248e-06
1.22617e-06
1.22633e-06
1.2265e-06
1.22599e-06
1.22596e-06
1.22426e-06
1.2269e-06
1.22347e-06
1.2233e-06
1.22639e-06
)
;

boundaryField
{
    inlet
    {
        type            calculated;
        value           uniform -1.225e-06;
    }
    outlet
    {
        type            calculated;
        value           uniform 1.22469e-06;
    }
    yzfaces
    {
        type            empty;
    }
}


// ************************************************************************* //
