/*--------------------------------*- C++ -*----------------------------------*\
| =========                 |                                                 |
| \\      /  F ield         | foam-extend: Open Source CFD                    |
|  \\    /   O peration     | Version:     5.0                                |
|   \\  /    A nd           | Web:         http://www.foam-extend.org         |
|    \\/     M anipulation  |                                                 |
\*---------------------------------------------------------------------------*/
FoamFile
{
    version     2.0;
    format      ascii;
    class       volVectorField;
    location    "4";
    object      U.gas;
}
// * * * * * * * * * * * * * * * * * * * * * * * * * * * * * * * * * * * * * //

dimensions      [0 1 -1 0 0 0 0];

internalField   nonuniform List<vector> 
100
(
(0.0122863 0 0)
(0.0125166 0 0)
(0.012771 0 0)
(0.0129835 0 0)
(0.0131708 0 0)
(0.0133927 0 0)
(0.0136454 0 0)
(0.0138693 0 0)
(0.0141095 0 0)
(0.0143346 0 0)
(0.0145557 0 0)
(0.0148035 0 0)
(0.0150083 0 0)
(0.0152359 0 0)
(0.0154455 0 0)
(0.015632 0 0)
(0.015827 0 0)
(0.0160134 0 0)
(0.0161982 0 0)
(0.0163953 0 0)
(0.0165833 0 0)
(0.0167635 0 0)
(0.0169328 0 0)
(0.0171116 0 0)
(0.0172671 0 0)
(0.0173913 0 0)
(0.0175588 0 0)
(0.0177135 0 0)
(0.0178591 0 0)
(0.0180234 0 0)
(0.018207 0 0)
(0.0183095 0 0)
(0.0184233 0 0)
(0.0185832 0 0)
(0.0186869 0 0)
(0.0188023 0 0)
(0.018931 0 0)
(0.0190416 0 0)
(0.0191509 0 0)
(0.0192914 0 0)
(0.0193908 0 0)
(0.0195098 0 0)
(0.0196029 0 0)
(0.019703 0 0)
(0.0197781 0 0)
(0.0198858 0 0)
(0.0199932 0 0)
(0.0201167 0 0)
(0.0201816 0 0)
(0.0202605 0 0)
(0.0203674 0 0)
(0.0204438 0 0)
(0.0205462 0 0)
(0.0205946 0 0)
(0.0206823 0 0)
(0.0207372 0 0)
(0.0208154 0 0)
(0.020924 0 0)
(0.0209961 0 0)
(0.0210154 0 0)
(0.0211111 0 0)
(0.0211682 0 0)
(0.0212211 0 0)
(0.0212566 0 0)
(0.0213169 0 0)
(0.0213463 0 0)
(0.0214453 0 0)
(0.0214709 0 0)
(0.0215307 0 0)
(0.0216027 0 0)
(0.0216763 0 0)
(0.0216992 0 0)
(0.0217368 0 0)
(0.0217529 0 0)
(0.0217846 0 0)
(0.0218105 0 0)
(0.0218445 0 0)
(0.0218849 0 0)
(0.021926 0 0)
(0.0219506 0 0)
(0.0219376 0 0)
(0.0219483 0 0)
(0.0219536 0 0)
(0.0219682 0 0)
(0.0219727 0 0)
(0.021966 0 0)
(0.0219462 0 0)
(0.0219242 0 0)
(0.0218582 0 0)
(0.0217946 0 0)
(0.0216978 0 0)
(0.0215607 0 0)
(0.0213346 0 0)
(0.0209804 0 0)
(0.0203716 0 0)
(0.0193421 0 0)
(0.0175334 0 0)
(0.0148811 0 0)
(0.0124729 0 0)
(0.0115719 0 0)
)
;

boundaryField
{
    inlet
    {
        type            fixedValue;
        value           uniform (0.005 0 0);
    }
    outlet
    {
        type            zeroGradient;
    }
    yzfaces
    {
        type            empty;
    }
}


// ************************************************************************* //
