/*--------------------------------*- C++ -*----------------------------------*\
| =========                 |                                                 |
| \\      /  F ield         | foam-extend: Open Source CFD                    |
|  \\    /   O peration     | Version:     5.0                                |
|   \\  /    A nd           | Web:         http://www.foam-extend.org         |
|    \\/     M anipulation  |                                                 |
\*---------------------------------------------------------------------------*/
FoamFile
{
    version     2.0;
    format      ascii;
    class       volVectorField;
    location    "4";
    object      U.water;
}
// * * * * * * * * * * * * * * * * * * * * * * * * * * * * * * * * * * * * * //

dimensions      [0 1 -1 0 0 0 0];

internalField   nonuniform List<vector> 
100
(
(1.99138e-05 0 0)
(4.37946e-05 0 0)
(5.56956e-05 0 0)
(7.77406e-05 0 0)
(0.000123027 0 0)
(0.000173266 0 0)
(0.000206088 0 0)
(0.000224253 0 0)
(0.000242033 0 0)
(0.000266078 0 0)
(0.000296451 0 0)
(0.00034408 0 0)
(0.000379019 0 0)
(0.000408293 0 0)
(0.000446857 0 0)
(0.000470608 0 0)
(0.00049319 0 0)
(0.00052947 0 0)
(0.000563792 0 0)
(0.000588339 0 0)
(0.000614728 0 0)
(0.000648142 0 0)
(0.000680515 0 0)
(0.000706254 0 0)
(0.000740674 0 0)
(0.000766841 0 0)
(0.000790075 0 0)
(0.000824946 0 0)
(0.00085477 0 0)
(0.00088697 0 0)
(0.000926916 0 0)
(0.00095309 0 0)
(0.000966543 0 0)
(0.0010056 0 0)
(0.00104335 0 0)
(0.00106537 0 0)
(0.00109768 0 0)
(0.00112913 0 0)
(0.00115189 0 0)
(0.00118527 0 0)
(0.00121541 0 0)
(0.00123589 0 0)
(0.00126458 0 0)
(0.0012977 0 0)
(0.0013231 0 0)
(0.00134449 0 0)
(0.00137539 0 0)
(0.00141186 0 0)
(0.00144065 0 0)
(0.00145858 0 0)
(0.00149106 0 0)
(0.00152322 0 0)
(0.00155387 0 0)
(0.00158116 0 0)
(0.00160586 0 0)
(0.00163338 0 0)
(0.00165801 0 0)
(0.00169798 0 0)
(0.00173836 0 0)
(0.00175691 0 0)
(0.00178197 0 0)
(0.00181749 0 0)
(0.00184409 0 0)
(0.00186942 0 0)
(0.00190083 0 0)
(0.00193006 0 0)
(0.00196279 0 0)
(0.00199765 0 0)
(0.00202527 0 0)
(0.00206265 0 0)
(0.00210661 0 0)
(0.00214338 0 0)
(0.00216938 0 0)
(0.00220094 0 0)
(0.00223689 0 0)
(0.00227544 0 0)
(0.00231385 0 0)
(0.00235502 0 0)
(0.00240183 0 0)
(0.00244578 0 0)
(0.00247932 0 0)
(0.00252379 0 0)
(0.00257803 0 0)
(0.00263233 0 0)
(0.00269109 0 0)
(0.00275101 0 0)
(0.00281517 0 0)
(0.00289074 0 0)
(0.00297002 0 0)
(0.00305942 0 0)
(0.00316932 0 0)
(0.00329458 0 0)
(0.00344359 0 0)
(0.00362555 0 0)
(0.00384979 0 0)
(0.00413314 0 0)
(0.00445861 0 0)
(0.00475853 0 0)
(0.004944 0 0)
(0.0049976 0 0)
)
;

boundaryField
{
    inlet
    {
        type            fixedValue;
        value           uniform (0 0 0);
    }
    outlet
    {
        type            zeroGradient;
    }
    yzfaces
    {
        type            empty;
    }
}


// ************************************************************************* //
