/*--------------------------------*- C++ -*----------------------------------*\
| =========                 |                                                 |
| \\      /  F ield         | foam-extend: Open Source CFD                    |
|  \\    /   O peration     | Version:     5.0                                |
|   \\  /    A nd           | Web:         http://www.foam-extend.org         |
|    \\/     M anipulation  |                                                 |
\*---------------------------------------------------------------------------*/
FoamFile
{
    version     2.0;
    format      ascii;
    class       volScalarField;
    location    "6";
    object      alpha.gas;
}
// * * * * * * * * * * * * * * * * * * * * * * * * * * * * * * * * * * * * * //

dimensions      [0 0 0 0 0 0 0];

internalField   nonuniform List<scalar> 
100
(
0.0868898
0.0855033
0.0839929
0.0825739
0.0811056
0.0798995
0.07855
0.0770472
0.0757598
0.0745523
0.0733041
0.0721597
0.0711486
0.0699823
0.0689142
0.0678599
0.0668399
0.0658361
0.0650068
0.064069
0.0631673
0.0623126
0.0614621
0.060618
0.0598883
0.0590989
0.0583031
0.0576208
0.0569106
0.0562514
0.0556261
0.0549288
0.0543029
0.0537275
0.0531845
0.0525741
0.0519845
0.0514244
0.0508637
0.0503686
0.0498637
0.0494112
0.0489159
0.048431
0.0479984
0.0475207
0.0471183
0.0466679
0.0462408
0.0458407
0.0454299
0.0450444
0.04463
0.044257
0.0438972
0.0435227
0.0431579
0.0428145
0.0424598
0.0421079
0.0417627
0.0414416
0.0410926
0.0407696
0.0404699
0.0401738
0.0398823
0.0395691
0.0392657
0.0389615
0.0386775
0.0384094
0.0381167
0.0378405
0.0375691
0.037296
0.0369949
0.0367193
0.0364344
0.0361662
0.0359159
0.0356624
0.0354224
0.0351606
0.0349219
0.0346676
0.0344264
0.0341714
0.0339343
0.033697
0.0334629
0.0332219
0.0330101
0.032763
0.0325419
0.0322797
0.0320744
0.0318614
0.0316912
0.0315877
)
;

boundaryField
{
    inlet
    {
        type            fixedValue;
        value           uniform 0.2;
    }
    outlet
    {
        type            zeroGradient;
    }
    yzfaces
    {
        type            empty;
    }
}


// ************************************************************************* //
