/*--------------------------------*- C++ -*----------------------------------*\
| =========                 |                                                 |
| \\      /  F ield         | foam-extend: Open Source CFD                    |
|  \\    /   O peration     | Version:     5.0                                |
|   \\  /    A nd           | Web:         http://www.foam-extend.org         |
|    \\/     M anipulation  |                                                 |
\*---------------------------------------------------------------------------*/
FoamFile
{
    version     2.0;
    format      ascii;
    class       volScalarField;
    location    "6";
    object      CO2.gas;
}
// * * * * * * * * * * * * * * * * * * * * * * * * * * * * * * * * * * * * * //

dimensions      [0 0 0 0 0 0 0];

internalField   nonuniform List<scalar> 
100
(
0.0868903
0.0855113
0.0840003
0.0825868
0.0810574
0.0799589
0.0786021
0.0770255
0.0757629
0.0745755
0.0732853
0.0721417
0.0711721
0.0699699
0.068921
0.0678787
0.0668359
0.0658185
0.0650272
0.0640727
0.0631628
0.0623136
0.0614671
0.0606159
0.0599072
0.0591107
0.0582991
0.0576235
0.0569012
0.0562435
0.0556331
0.0549251
0.0542993
0.0537329
0.0531952
0.0525701
0.051978
0.0514255
0.0508558
0.0503739
0.0498597
0.049417
0.0489145
0.0484274
0.0479998
0.0475118
0.0471274
0.046673
0.0462433
0.0458427
0.045427
0.0450444
0.0446248
0.0442569
0.0438998
0.0435237
0.0431536
0.0428106
0.0424592
0.0421098
0.0417632
0.0414456
0.0410906
0.0407669
0.0404677
0.0401722
0.0398842
0.0395689
0.0392679
0.03896
0.0386791
0.0384179
0.0381205
0.0378414
0.0375702
0.0373013
0.036995
0.0367193
0.0364327
0.0361655
0.0359179
0.0356618
0.0354238
0.0351605
0.0349198
0.0346666
0.0344269
0.0341709
0.0339338
0.033696
0.0334628
0.0332211
0.033014
0.0327618
0.0325446
0.0322756
0.0320752
0.0318622
0.0316916
0.0315906
)
;

boundaryField
{
    inlet
    {
        type            fixedValue;
        value           uniform 0.2;
    }
    outlet
    {
        type            zeroGradient;
    }
    yzfaces
    {
        type            empty;
    }
}


// ************************************************************************* //
