/*--------------------------------*- C++ -*----------------------------------*\
| =========                 |                                                 |
| \\      /  F ield         | foam-extend: Open Source CFD                    |
|  \\    /   O peration     | Version:     5.0                                |
|   \\  /    A nd           | Web:         http://www.foam-extend.org         |
|    \\/     M anipulation  |                                                 |
\*---------------------------------------------------------------------------*/
FoamFile
{
    version     2.0;
    format      ascii;
    class       surfaceScalarField;
    location    "6";
    object      phi;
}
// * * * * * * * * * * * * * * * * * * * * * * * * * * * * * * * * * * * * * //

dimensions      [0 3 -1 0 0 0 0];

internalField   nonuniform List<scalar> 
99
(
1.22545e-06
1.22498e-06
1.22358e-06
1.2188e-06
1.23102e-06
1.22396e-06
1.21813e-06
1.22229e-06
1.22092e-06
1.21238e-06
1.21941e-06
1.22e-06
1.21075e-06
1.21753e-06
1.21494e-06
1.21215e-06
1.21382e-06
1.21988e-06
1.21321e-06
1.21195e-06
1.21346e-06
1.21248e-06
1.21092e-06
1.21226e-06
1.2113e-06
1.20843e-06
1.20979e-06
1.21069e-06
1.20935e-06
1.21181e-06
1.20824e-06
1.20947e-06
1.20953e-06
1.21e-06
1.20542e-06
1.20957e-06
1.21118e-06
1.20947e-06
1.21512e-06
1.21108e-06
1.21359e-06
1.21239e-06
1.21359e-06
1.21412e-06
1.21206e-06
1.21745e-06
1.21386e-06
1.21316e-06
1.21321e-06
1.2126e-06
1.21454e-06
1.21229e-06
1.21545e-06
1.21515e-06
1.21488e-06
1.2141e-06
1.21612e-06
1.21699e-06
1.21543e-06
1.21515e-06
1.21517e-06
1.21397e-06
1.2153e-06
1.21572e-06
1.21508e-06
1.21669e-06
1.21569e-06
1.217e-06
1.21591e-06
1.21619e-06
1.21739e-06
1.21448e-06
1.21337e-06
1.21446e-06
1.21508e-06
1.21255e-06
1.21417e-06
1.21417e-06
1.21564e-06
1.21576e-06
1.21426e-06
1.21564e-06
1.21477e-06
1.21573e-06
1.21611e-06
1.21589e-06
1.21586e-06
1.21606e-06
1.21609e-06
1.21577e-06
1.21623e-06
1.21694e-06
1.21466e-06
1.21562e-06
1.21297e-06
1.21587e-06
1.21538e-06
1.21508e-06
1.2157e-06
)
;

boundaryField
{
    inlet
    {
        type            calculated;
        value           uniform -1.225e-06;
    }
    outlet
    {
        type            calculated;
        value           uniform 1.21463e-06;
    }
    yzfaces
    {
        type            empty;
    }
}


// ************************************************************************* //
