/*--------------------------------*- C++ -*----------------------------------*\
| =========                 |                                                 |
| \\      /  F ield         | foam-extend: Open Source CFD                    |
|  \\    /   O peration     | Version:     5.0                                |
|   \\  /    A nd           | Web:         http://www.foam-extend.org         |
|    \\/     M anipulation  |                                                 |
\*---------------------------------------------------------------------------*/
FoamFile
{
    version     2.0;
    format      ascii;
    class       volVectorField;
    location    "6";
    object      U.gas;
}
// * * * * * * * * * * * * * * * * * * * * * * * * * * * * * * * * * * * * * //

dimensions      [0 1 -1 0 0 0 0];

internalField   nonuniform List<vector> 
100
(
(0.0114903 0 0)
(0.0116599 0 0)
(0.0118446 0 0)
(0.0119925 0 0)
(0.0121979 0 0)
(0.0123711 0 0)
(0.0125316 0 0)
(0.0127308 0 0)
(0.0128939 0 0)
(0.0130159 0 0)
(0.0131892 0 0)
(0.0133755 0 0)
(0.0134895 0 0)
(0.0136738 0 0)
(0.013857 0 0)
(0.0139977 0 0)
(0.0141573 0 0)
(0.0143477 0 0)
(0.0144774 0 0)
(0.0146122 0 0)
(0.0147651 0 0)
(0.0149177 0 0)
(0.0150601 0 0)
(0.0152003 0 0)
(0.0153317 0 0)
(0.015475 0 0)
(0.0156048 0 0)
(0.0157377 0 0)
(0.0158755 0 0)
(0.015999 0 0)
(0.0161261 0 0)
(0.0162593 0 0)
(0.0163737 0 0)
(0.0164838 0 0)
(0.0165777 0 0)
(0.0167169 0 0)
(0.0168738 0 0)
(0.0169882 0 0)
(0.0171273 0 0)
(0.0172345 0 0)
(0.017328 0 0)
(0.0174326 0 0)
(0.0175526 0 0)
(0.0176607 0 0)
(0.0177429 0 0)
(0.017873 0 0)
(0.0179669 0 0)
(0.0180472 0 0)
(0.0181275 0 0)
(0.0182097 0 0)
(0.018311 0 0)
(0.0183954 0 0)
(0.0184982 0 0)
(0.0185902 0 0)
(0.0186672 0 0)
(0.0187491 0 0)
(0.0188353 0 0)
(0.0189306 0 0)
(0.0190098 0 0)
(0.0190747 0 0)
(0.0191433 0 0)
(0.0192045 0 0)
(0.0192888 0 0)
(0.0193612 0 0)
(0.0194184 0 0)
(0.0194908 0 0)
(0.0195636 0 0)
(0.019641 0 0)
(0.0197058 0 0)
(0.0197619 0 0)
(0.0198262 0 0)
(0.0198713 0 0)
(0.0199068 0 0)
(0.0199563 0 0)
(0.0200268 0 0)
(0.0200783 0 0)
(0.0201388 0 0)
(0.0201992 0 0)
(0.0202702 0 0)
(0.0203266 0 0)
(0.0203595 0 0)
(0.0204064 0 0)
(0.0204549 0 0)
(0.0205124 0 0)
(0.0205641 0 0)
(0.0206154 0 0)
(0.0206564 0 0)
(0.0207081 0 0)
(0.020743 0 0)
(0.0207809 0 0)
(0.0208236 0 0)
(0.020872 0 0)
(0.02089 0 0)
(0.0209286 0 0)
(0.0209461 0 0)
(0.020995 0 0)
(0.0210209 0 0)
(0.0210409 0 0)
(0.0210319 0 0)
(0.0209829 0 0)
)
;

boundaryField
{
    inlet
    {
        type            fixedValue;
        value           uniform (0.005 0 0);
    }
    outlet
    {
        type            zeroGradient;
    }
    yzfaces
    {
        type            empty;
    }
}


// ************************************************************************* //
