/*--------------------------------*- C++ -*----------------------------------*\
| =========                 |                                                 |
| \\      /  F ield         | foam-extend: Open Source CFD                    |
|  \\    /   O peration     | Version:     5.0                                |
|   \\  /    A nd           | Web:         http://www.foam-extend.org         |
|    \\/     M anipulation  |                                                 |
\*---------------------------------------------------------------------------*/
FoamFile
{
    version     2.0;
    format      ascii;
    class       volVectorField;
    location    "6";
    object      U.water;
}
// * * * * * * * * * * * * * * * * * * * * * * * * * * * * * * * * * * * * * //

dimensions      [0 1 -1 0 0 0 0];

internalField   nonuniform List<vector> 
100
(
(1.58735e-05 0 0)
(2.80714e-05 0 0)
(3.92138e-05 0 0)
(5.63681e-05 0 0)
(8.92055e-05 0 0)
(0.000113121 0 0)
(0.000102202 0 0)
(0.000123764 0 0)
(0.000164114 0 0)
(0.000181928 0 0)
(0.000203197 0 0)
(0.000238595 0 0)
(0.00025132 0 0)
(0.000263125 0 0)
(0.000289113 0 0)
(0.000308536 0 0)
(0.000329795 0 0)
(0.00036337 0 0)
(0.000384955 0 0)
(0.000394842 0 0)
(0.000418709 0 0)
(0.000440264 0 0)
(0.000458497 0 0)
(0.00048527 0 0)
(0.00050686 0 0)
(0.000518767 0 0)
(0.000544988 0 0)
(0.000569841 0 0)
(0.000589072 0 0)
(0.000613987 0 0)
(0.000628519 0 0)
(0.000645996 0 0)
(0.000674063 0 0)
(0.000696858 0 0)
(0.000709776 0 0)
(0.000724668 0 0)
(0.000749157 0 0)
(0.000770053 0 0)
(0.000794372 0 0)
(0.000816729 0 0)
(0.000836729 0 0)
(0.000855501 0 0)
(0.000871019 0 0)
(0.000894482 0 0)
(0.000912112 0 0)
(0.000933248 0 0)
(0.000953706 0 0)
(0.000967797 0 0)
(0.000989373 0 0)
(0.00100792 0 0)
(0.00102739 0 0)
(0.00104503 0 0)
(0.00106416 0 0)
(0.00108726 0 0)
(0.00110448 0 0)
(0.00112099 0 0)
(0.00114151 0 0)
(0.00116169 0 0)
(0.00117856 0 0)
(0.00119623 0 0)
(0.00121648 0 0)
(0.00123377 0 0)
(0.00125175 0 0)
(0.0012743 0 0)
(0.00129319 0 0)
(0.00131103 0 0)
(0.00132757 0 0)
(0.00134486 0 0)
(0.00136412 0 0)
(0.00138316 0 0)
(0.00140385 0 0)
(0.00141935 0 0)
(0.00143422 0 0)
(0.00145409 0 0)
(0.00147299 0 0)
(0.00148754 0 0)
(0.00150587 0 0)
(0.00152779 0 0)
(0.00154818 0 0)
(0.00157034 0 0)
(0.0015883 0 0)
(0.00160679 0 0)
(0.00162504 0 0)
(0.00164289 0 0)
(0.00166254 0 0)
(0.00168126 0 0)
(0.0016997 0 0)
(0.00171863 0 0)
(0.00173918 0 0)
(0.00175791 0 0)
(0.0017764 0 0)
(0.00179712 0 0)
(0.00181394 0 0)
(0.00183134 0 0)
(0.00184904 0 0)
(0.00187008 0 0)
(0.00189437 0 0)
(0.0019129 0 0)
(0.0019347 0 0)
(0.00195453 0 0)
)
;

boundaryField
{
    inlet
    {
        type            fixedValue;
        value           uniform (0 0 0);
    }
    outlet
    {
        type            zeroGradient;
    }
    yzfaces
    {
        type            empty;
    }
}


// ************************************************************************* //
