/*--------------------------------*- C++ -*----------------------------------*\
| =========                 |                                                 |
| \\      /  F ield         | foam-extend: Open Source CFD                    |
|  \\    /   O peration     | Version:     5.0                                |
|   \\  /    A nd           | Web:         http://www.foam-extend.org         |
|    \\/     M anipulation  |                                                 |
\*---------------------------------------------------------------------------*/
FoamFile
{
    version     2.0;
    format      ascii;
    class       volScalarField;
    location    "8";
    object      alpha.gas;
}
// * * * * * * * * * * * * * * * * * * * * * * * * * * * * * * * * * * * * * //

dimensions      [0 0 0 0 0 0 0];

internalField   nonuniform List<scalar> 
100
(
0.000101543
0.000164264
0.000222817
0.000279438
0.000334925
0.000389535
0.000443913
0.000498163
0.0005523
0.000606154
0.00066005
0.000713886
0.000768046
0.000822284
0.000876961
0.000931565
0.000987359
0.0010425
0.00109938
0.00115603
0.00121476
0.00127344
0.00133491
0.00139667
0.0014616
0.00152896
0.00159938
0.0016743
0.00175571
0.00184451
0.00194666
0.00206423
0.00220963
0.002401
0.0026736
0.00310874
0.00390561
0.00585066
0.0121932
0.0299336
0.0570643
0.0847007
0.109677
0.130942
0.148028
0.161972
0.172486
0.179443
0.184182
0.186924
0.188594
0.189143
0.189522
0.18968
0.189715
0.189803
0.189864
0.189902
0.18987
0.189881
0.189853
0.189848
0.189934
0.189884
0.189932
0.190022
0.189912
0.189952
0.190011
0.190077
0.190075
0.19008
0.190044
0.190033
0.189962
0.190106
0.189996
0.190028
0.190014
0.190008
0.190043
0.190015
0.190179
0.190084
0.18995
0.190087
0.190026
0.189899
0.189921
0.18994
0.189894
0.189826
0.189903
0.189986
0.189784
0.189877
0.189784
0.189699
0.189569
0.189388
)
;

boundaryField
{
    inlet
    {
        type            fixedValue;
        value           uniform 0;
    }
    outlet
    {
        type            zeroGradient;
    }
    yzfaces
    {
        type            empty;
    }
}


// ************************************************************************* //
