/*--------------------------------*- C++ -*----------------------------------*\
| =========                 |                                                 |
| \\      /  F ield         | foam-extend: Open Source CFD                    |
|  \\    /   O peration     | Version:     5.0                                |
|   \\  /    A nd           | Web:         http://www.foam-extend.org         |
|    \\/     M anipulation  |                                                 |
\*---------------------------------------------------------------------------*/
FoamFile
{
    version     2.0;
    format      ascii;
    class       volVectorField;
    location    "8";
    object      U.water;
}
// * * * * * * * * * * * * * * * * * * * * * * * * * * * * * * * * * * * * * //

dimensions      [0 1 -1 0 0 0 0];

internalField   nonuniform List<vector> 
100
(
(0.0050025 0 0)
(0.00500519 0 0)
(0.00500628 0 0)
(0.00500608 0 0)
(0.0050121 0 0)
(0.00501483 0 0)
(0.00501189 0 0)
(0.00500895 0 0)
(0.00501123 0 0)
(0.00501781 0 0)
(0.00501869 0 0)
(0.00501529 0 0)
(0.00501859 0 0)
(0.0050219 0 0)
(0.00501375 0 0)
(0.00501424 0 0)
(0.00501711 0 0)
(0.00502144 0 0)
(0.0050201 0 0)
(0.00502117 0 0)
(0.00502039 0 0)
(0.00501917 0 0)
(0.00502091 0 0)
(0.00501934 0 0)
(0.00502516 0 0)
(0.00502051 0 0)
(0.00501654 0 0)
(0.0050196 0 0)
(0.00501581 0 0)
(0.0050141 0 0)
(0.00501752 0 0)
(0.00501793 0 0)
(0.00501953 0 0)
(0.00502036 0 0)
(0.00501618 0 0)
(0.00501154 0 0)
(0.0050081 0 0)
(0.0049792 0 0)
(0.00488791 0 0)
(0.00479 0 0)
(0.00471686 0 0)
(0.00462328 0 0)
(0.00448416 0 0)
(0.00422518 0 0)
(0.0039121 0 0)
(0.00361581 0 0)
(0.00306502 0 0)
(0.00235714 0 0)
(0.00172091 0 0)
(0.00110791 0 0)
(0.000603098 0 0)
(0.000255593 0 0)
(0.00015203 0 0)
(5.82216e-05 0 0)
(3.87315e-05 0 0)
(4.63154e-05 0 0)
(3.25285e-05 0 0)
(6.4942e-06 0 0)
(-1.00803e-06 0 0)
(-4.09068e-08 0 0)
(-4.24584e-06 0 0)
(2.74409e-05 0 0)
(1.51598e-05 0 0)
(4.52086e-06 0 0)
(4.3456e-05 0 0)
(-9.01633e-07 0 0)
(-1.46349e-05 0 0)
(3.26203e-05 0 0)
(3.9752e-05 0 0)
(2.27236e-05 0 0)
(5.71955e-06 0 0)
(-3.88812e-06 0 0)
(-8.63935e-06 0 0)
(-1.80803e-05 0 0)
(2.50795e-05 0 0)
(1.42868e-05 0 0)
(-1.67323e-05 0 0)
(9.97573e-06 0 0)
(-6.847e-07 0 0)
(1.30381e-05 0 0)
(6.93338e-06 0 0)
(4.2846e-05 0 0)
(2.43646e-05 0 0)
(-5.94405e-05 0 0)
(5.84903e-06 0 0)
(2.62155e-05 0 0)
(-4.78945e-05 0 0)
(-2.40096e-05 0 0)
(1.63964e-05 0 0)
(-2.58636e-06 0 0)
(-2.66641e-05 0 0)
(7.39152e-06 0 0)
(4.92763e-05 0 0)
(-2.86323e-05 0 0)
(-2.48569e-05 0 0)
(4.9692e-06 0 0)
(-4.44301e-05 0 0)
(-5.45103e-05 0 0)
(-8.04267e-05 0 0)
(-4.38157e-05 0 0)
)
;

boundaryField
{
    inlet
    {
        type            fixedValue;
        value           uniform (0.005 0 0);
    }
    outlet
    {
        type            zeroGradient;
    }
    yzfaces
    {
        type            empty;
    }
}


// ************************************************************************* //
