/*--------------------------------*- C++ -*----------------------------------*\
| =========                 |                                                 |
| \\      /  F ield         | foam-extend: Open Source CFD                    |
|  \\    /   O peration     | Version:     5.0                                |
|   \\  /    A nd           | Web:         http://www.foam-extend.org         |
|    \\/     M anipulation  |                                                 |
\*---------------------------------------------------------------------------*/
FoamFile
{
    version     2.0;
    format      ascii;
    class       volScalarField;
    location    "10";
    object      alpha.gas;
}
// * * * * * * * * * * * * * * * * * * * * * * * * * * * * * * * * * * * * * //

dimensions      [0 0 0 0 0 0 0];

internalField   nonuniform List<scalar> 
100
(
0.147051
0.131325
0.121231
0.113848
0.107899
0.103178
0.0990201
0.095668
0.0926855
0.0901154
0.0877896
0.0856127
0.0837508
0.0820825
0.080482
0.0789039
0.0774157
0.0762914
0.0749974
0.0740146
0.0729673
0.0721311
0.0710626
0.0701065
0.069122
0.0680644
0.0672748
0.0664344
0.0656881
0.0649602
0.0642194
0.0634345
0.0625821
0.0619078
0.0613393
0.060778
0.0602423
0.0596772
0.0591324
0.0586944
0.0583497
0.0578673
0.0574229
0.0569673
0.0565119
0.0560848
0.0556623
0.0551867
0.0546016
0.0541029
0.0536376
0.0532683
0.0529022
0.0525155
0.0522022
0.0519526
0.0517058
0.0514276
0.0510471
0.0507415
0.0503936
0.0500414
0.0497116
0.049441
0.0491951
0.0489289
0.0487016
0.0483916
0.0480647
0.047767
0.0474626
0.0472312
0.0470344
0.0467453
0.0464944
0.0463381
0.0460792
0.0457279
0.0454108
0.0451856
0.0449996
0.0448071
0.0446315
0.0443972
0.0441588
0.0439322
0.0437577
0.0435513
0.0433588
0.0431857
0.0429607
0.0427553
0.0425568
0.0423182
0.0420836
0.0418688
0.0417096
0.0415134
0.0412947
0.0410737
)
;

boundaryField
{
    inlet
    {
        type            fixedValue;
        value           uniform 0.2;
    }
    outlet
    {
        type            zeroGradient;
    }
    yzfaces
    {
        type            empty;
    }
}


// ************************************************************************* //
