/*--------------------------------*- C++ -*----------------------------------*\
| =========                 |                                                 |
| \\      /  F ield         | foam-extend: Open Source CFD                    |
|  \\    /   O peration     | Version:     5.0                                |
|   \\  /    A nd           | Web:         http://www.foam-extend.org         |
|    \\/     M anipulation  |                                                 |
\*---------------------------------------------------------------------------*/
FoamFile
{
    version     2.0;
    format      ascii;
    class       volVectorField;
    location    "10";
    object      U.water;
}
// * * * * * * * * * * * * * * * * * * * * * * * * * * * * * * * * * * * * * //

dimensions      [0 1 -1 0 0 0 0];

internalField   nonuniform List<vector> 
100
(
(2.1537e-05 0 0)
(5.17196e-05 0 0)
(7.78173e-05 0 0)
(0.000101619 0 0)
(0.000123692 0 0)
(0.000143921 0 0)
(0.00016376 0 0)
(0.000183316 0 0)
(0.000201679 0 0)
(0.000219672 0 0)
(0.000236932 0 0)
(0.000253823 0 0)
(0.000269994 0 0)
(0.000285487 0 0)
(0.000299778 0 0)
(0.00031436 0 0)
(0.000330471 0 0)
(0.000344958 0 0)
(0.00035846 0 0)
(0.000373363 0 0)
(0.000386044 0 0)
(0.000398592 0 0)
(0.000411987 0 0)
(0.000426311 0 0)
(0.000440252 0 0)
(0.000454885 0 0)
(0.000468974 0 0)
(0.00048309 0 0)
(0.000497397 0 0)
(0.000510575 0 0)
(0.000523899 0 0)
(0.000537897 0 0)
(0.000553536 0 0)
(0.000569106 0 0)
(0.000582558 0 0)
(0.000595227 0 0)
(0.000607541 0 0)
(0.000619644 0 0)
(0.000632435 0 0)
(0.000644933 0 0)
(0.000655102 0 0)
(0.000664586 0 0)
(0.000676546 0 0)
(0.000688675 0 0)
(0.000700408 0 0)
(0.000712233 0 0)
(0.000723288 0 0)
(0.000733723 0 0)
(0.000747425 0 0)
(0.000763697 0 0)
(0.000778161 0 0)
(0.000791438 0 0)
(0.000803733 0 0)
(0.000815823 0 0)
(0.000827174 0 0)
(0.000836147 0 0)
(0.000844998 0 0)
(0.000853362 0 0)
(0.00086181 0 0)
(0.000873837 0 0)
(0.000886074 0 0)
(0.000898287 0 0)
(0.000910853 0 0)
(0.000923439 0 0)
(0.000934264 0 0)
(0.000943085 0 0)
(0.000952279 0 0)
(0.000961918 0 0)
(0.00097423 0 0)
(0.000988495 0 0)
(0.0010021 0 0)
(0.00101344 0 0)
(0.00102118 0 0)
(0.00103061 0 0)
(0.00104222 0 0)
(0.0010504 0 0)
(0.00105821 0 0)
(0.00107175 0 0)
(0.00108809 0 0)
(0.00110187 0 0)
(0.00111272 0 0)
(0.00112221 0 0)
(0.00113012 0 0)
(0.001139 0 0)
(0.00115154 0 0)
(0.00116336 0 0)
(0.00117334 0 0)
(0.00118322 0 0)
(0.00119305 0 0)
(0.00120156 0 0)
(0.00121069 0 0)
(0.00122027 0 0)
(0.00122956 0 0)
(0.00124057 0 0)
(0.00125316 0 0)
(0.00126565 0 0)
(0.00127624 0 0)
(0.00128536 0 0)
(0.0012955 0 0)
(0.00130777 0 0)
)
;

boundaryField
{
    inlet
    {
        type            fixedValue;
        value           uniform (0 0 0);
    }
    outlet
    {
        type            zeroGradient;
    }
    yzfaces
    {
        type            empty;
    }
}


// ************************************************************************* //
