/*--------------------------------*- C++ -*----------------------------------*\
| =========                 |                                                 |
| \\      /  F ield         | foam-extend: Open Source CFD                    |
|  \\    /   O peration     | Version:     5.0                                |
|   \\  /    A nd           | Web:         http://www.foam-extend.org         |
|    \\/     M anipulation  |                                                 |
\*---------------------------------------------------------------------------*/
FoamFile
{
    version     2.0;
    format      ascii;
    class       surfaceScalarField;
    location    "9";
    object      phi;
}
// * * * * * * * * * * * * * * * * * * * * * * * * * * * * * * * * * * * * * //

dimensions      [0 3 -1 0 0 0 0];

internalField   nonuniform List<scalar> 
99
(
1.23112e-06
1.22328e-06
1.22726e-06
1.22392e-06
1.22327e-06
1.23961e-06
1.24768e-06
1.24835e-06
1.24566e-06
1.24432e-06
1.24235e-06
1.24354e-06
1.24978e-06
1.2472e-06
1.25139e-06
1.24815e-06
1.24261e-06
1.24015e-06
1.2426e-06
1.24293e-06
1.24626e-06
1.24362e-06
1.24449e-06
1.24424e-06
1.24612e-06
1.24243e-06
1.2449e-06
1.24477e-06
1.24561e-06
1.24478e-06
1.24651e-06
1.24455e-06
1.24755e-06
1.2464e-06
1.24684e-06
1.24853e-06
1.25194e-06
1.25158e-06
1.25051e-06
1.24941e-06
1.24868e-06
1.24901e-06
1.25073e-06
1.24977e-06
1.25021e-06
1.25311e-06
1.25179e-06
1.25148e-06
1.25412e-06
1.2524e-06
1.25213e-06
1.25089e-06
1.25251e-06
1.25416e-06
1.25611e-06
1.25574e-06
1.2581e-06
1.25761e-06
1.25932e-06
1.25941e-06
1.25783e-06
1.25952e-06
1.26024e-06
1.25935e-06
1.25742e-06
1.26039e-06
1.25935e-06
1.26019e-06
1.26091e-06
1.2589e-06
1.25869e-06
1.25956e-06
1.25909e-06
1.25842e-06
1.25846e-06
1.25944e-06
1.25999e-06
1.25856e-06
1.25871e-06
1.25804e-06
1.25841e-06
1.25899e-06
1.25915e-06
1.25789e-06
1.25795e-06
1.25775e-06
1.25798e-06
1.2567e-06
1.25698e-06
1.2565e-06
1.25652e-06
1.25641e-06
1.25663e-06
1.25733e-06
1.25753e-06
1.25834e-06
1.25816e-06
1.25787e-06
1.25901e-06
)
;

boundaryField
{
    inlet
    {
        type            calculated;
        value           uniform -1.225e-06;
    }
    outlet
    {
        type            calculated;
        value           uniform 1.26107e-06;
    }
    yzfaces
    {
        type            empty;
    }
}


// ************************************************************************* //
