/*--------------------------------*- C++ -*----------------------------------*\
| =========                 |                                                 |
| \\      /  F ield         | foam-extend: Open Source CFD                    |
|  \\    /   O peration     | Version:     5.0                                |
|   \\  /    A nd           | Web:         http://www.foam-extend.org         |
|    \\/     M anipulation  |                                                 |
\*---------------------------------------------------------------------------*/
FoamFile
{
    version     2.0;
    format      ascii;
    class       volVectorField;
    location    "9";
    object      U.water;
}
// * * * * * * * * * * * * * * * * * * * * * * * * * * * * * * * * * * * * * //

dimensions      [0 1 -1 0 0 0 0];

internalField   nonuniform List<vector> 
100
(
(2.32978e-05 0 0)
(5.56198e-05 0 0)
(8.33812e-05 0 0)
(0.000108644 0 0)
(0.000131974 0 0)
(0.000155664 0 0)
(0.000179599 0 0)
(0.000202189 0 0)
(0.00022333 0 0)
(0.000244508 0 0)
(0.000263319 0 0)
(0.000280362 0 0)
(0.000297675 0 0)
(0.000315291 0 0)
(0.000332572 0 0)
(0.000347936 0 0)
(0.000362055 0 0)
(0.000376572 0 0)
(0.000392851 0 0)
(0.000411044 0 0)
(0.000428531 0 0)
(0.000444656 0 0)
(0.000459368 0 0)
(0.000474706 0 0)
(0.000490217 0 0)
(0.000506127 0 0)
(0.000522925 0 0)
(0.000541046 0 0)
(0.000556896 0 0)
(0.000570642 0 0)
(0.000585323 0 0)
(0.000601962 0 0)
(0.000616096 0 0)
(0.000629404 0 0)
(0.000642615 0 0)
(0.000656461 0 0)
(0.000669832 0 0)
(0.000683014 0 0)
(0.000694742 0 0)
(0.000707337 0 0)
(0.000722348 0 0)
(0.00073839 0 0)
(0.000754474 0 0)
(0.000770222 0 0)
(0.000783369 0 0)
(0.00079743 0 0)
(0.000812246 0 0)
(0.000825942 0 0)
(0.000839848 0 0)
(0.0008508 0 0)
(0.000860472 0 0)
(0.000871913 0 0)
(0.000884733 0 0)
(0.000899437 0 0)
(0.000913559 0 0)
(0.000925225 0 0)
(0.000936835 0 0)
(0.000949603 0 0)
(0.000962707 0 0)
(0.000975689 0 0)
(0.000985973 0 0)
(0.0010003 0 0)
(0.00101658 0 0)
(0.00102833 0 0)
(0.00103858 0 0)
(0.00105183 0 0)
(0.00106343 0 0)
(0.00107369 0 0)
(0.00108558 0 0)
(0.00109617 0 0)
(0.00110782 0 0)
(0.00112124 0 0)
(0.00113385 0 0)
(0.00114648 0 0)
(0.0011608 0 0)
(0.00117458 0 0)
(0.00118695 0 0)
(0.0011971 0 0)
(0.00120722 0 0)
(0.00121953 0 0)
(0.00123158 0 0)
(0.00124342 0 0)
(0.00125413 0 0)
(0.00126465 0 0)
(0.00127649 0 0)
(0.00128809 0 0)
(0.00130016 0 0)
(0.00131159 0 0)
(0.00132393 0 0)
(0.00133605 0 0)
(0.00134647 0 0)
(0.00135748 0 0)
(0.00136861 0 0)
(0.00138029 0 0)
(0.00139314 0 0)
(0.00140637 0 0)
(0.00141733 0 0)
(0.00142794 0 0)
(0.00144068 0 0)
(0.00145417 0 0)
)
;

boundaryField
{
    inlet
    {
        type            fixedValue;
        value           uniform (0 0 0);
    }
    outlet
    {
        type            zeroGradient;
    }
    yzfaces
    {
        type            empty;
    }
}


// ************************************************************************* //
