/*--------------------------------*- C++ -*----------------------------------*\
| =========                 |                                                 |
| \\      /  F ield         | foam-extend: Open Source CFD                    |
|  \\    /   O peration     | Version:     5.0                                |
|   \\  /    A nd           | Web:         http://www.foam-extend.org         |
|    \\/     M anipulation  |                                                 |
\*---------------------------------------------------------------------------*/
FoamFile
{
    version     2.0;
    format      ascii;
    class       surfaceScalarField;
    location    "4";
    object      phi;
}
// * * * * * * * * * * * * * * * * * * * * * * * * * * * * * * * * * * * * * //

dimensions      [0 3 -1 0 0 0 0];

internalField   nonuniform List<scalar> 
99
(
1.22542e-06
1.22532e-06
1.22618e-06
1.22555e-06
1.22436e-06
1.22705e-06
1.22546e-06
1.22575e-06
1.22613e-06
1.22678e-06
1.22556e-06
1.22597e-06
1.22679e-06
1.2264e-06
1.22622e-06
1.22429e-06
1.22768e-06
1.22545e-06
1.21815e-06
1.22848e-06
1.21649e-06
1.21722e-06
1.21809e-06
1.20082e-06
1.20547e-06
1.22297e-06
1.1981e-06
1.23747e-06
1.20705e-06
1.1921e-06
1.2517e-06
1.2219e-06
1.2368e-06
1.2219e-06
1.2368e-06
1.20699e-06
1.2219e-06
1.2368e-06
1.2815e-06
1.2368e-06
1.2666e-06
1.2517e-06
1.2219e-06
1.20699e-06
1.20699e-06
1.2219e-06
1.2219e-06
1.20699e-06
1.2219e-06
1.20699e-06
1.17719e-06
1.16229e-06
1.20699e-06
1.19209e-06
1.20699e-06
1.2368e-06
1.2517e-06
1.2517e-06
1.2517e-06
1.2368e-06
1.2815e-06
1.2666e-06
1.2666e-06
1.2815e-06
1.2666e-06
1.2517e-06
1.2517e-06
1.2517e-06
1.2517e-06
1.2517e-06
1.2368e-06
1.2964e-06
1.2964e-06
1.3262e-06
1.2964e-06
1.2964e-06
1.2964e-06
1.2964e-06
1.3411e-06
1.3113e-06
1.3113e-06
1.3113e-06
1.2815e-06
1.2964e-06
1.2517e-06
1.2517e-06
1.2368e-06
1.2517e-06
1.2368e-06
1.2368e-06
1.2517e-06
1.2368e-06
1.2517e-06
1.2368e-06
1.2517e-06
1.2219e-06
1.2517e-06
1.2517e-06
1.2964e-06
)
;

boundaryField
{
    inlet
    {
        type            calculated;
        value           uniform -1.225e-06;
    }
    outlet
    {
        type            calculated;
        value           uniform 1.2815e-06;
    }
    yzfaces
    {
        type            empty;
    }
}


// ************************************************************************* //
