/*--------------------------------*- C++ -*----------------------------------*\
| =========                 |                                                 |
| \\      /  F ield         | foam-extend: Open Source CFD                    |
|  \\    /   O peration     | Version:     5.0                                |
|   \\  /    A nd           | Web:         http://www.foam-extend.org         |
|    \\/     M anipulation  |                                                 |
\*---------------------------------------------------------------------------*/
FoamFile
{
    version     2.0;
    format      ascii;
    class       volScalarField;
    location    "2000";
    object      alpha.oil;
}
// * * * * * * * * * * * * * * * * * * * * * * * * * * * * * * * * * * * * * //

dimensions      [0 0 0 0 0 0 0];

internalField   nonuniform List<scalar> 
1000
(
0.22
0.22
0.17
0.19
0.17
0.16
0.15
0.2
0.15
0.16
0.24
0.22
0.24
0.24
0.23
0.15
0.17
0.24
0.2
0.23
0.24
0.19
0.18
0.21
0.18
0.17
0.19
0.22
0.22
0.15
0.15
0.22
0.19
0.19
0.17
0.22
0.24
0.23
0.16
0.2
0.24
0.2
0.24
0.17
0.23
0.22
0.15
0.2
0.22
0.17
0.21
0.2
0.22
0.2
0.17
0.21
0.15
0.2
0.17
0.16
0.16
0.18
0.24
0.19
0.18
0.23
0.18
0.21
0.18
0.179999
0.169994
0.20988
0.159432
0.18717
0.181509
0.175689
0.162875
0.160904
0.141928
0.185338
0.166919
0.166338
0.165826
0.139242
0.147529
0.181731
0.138079
0.197639
0.170105
0.142949
0.0763137
0.0861623
0.0887236
0.0642644
0.0551392
0.058809
0.0539033
0.0470197
0.0239759
0.0193654
0.16
0.22
0.18
0.19
0.24
0.24
0.16
0.24
0.2
0.19
0.17
0.19
0.21
0.17
0.17
0.23
0.15
0.2
0.19
0.22
0.18
0.21
0.17
0.19
0.19
0.2
0.21
0.18
0.21
0.15
0.23
0.16
0.18
0.18
0.19
0.24
0.19
0.24
0.22
0.19
0.24
0.2
0.22
0.22
0.17
0.2
0.16
0.15
0.15
0.19
0.2
0.22
0.15
0.24
0.22
0.23
0.2
0.18
0.24
0.24
0.2
0.16
0.17
0.19
0.21
0.15
0.229999
0.159838
0.167625
0.161779
0.183267
0.186546
0.20894
0.171754
0.1451
0.127489
0.126949
0.168602
0.142755
0.200943
0.133581
0.149972
0.199589
0.132833
0.13263
0.198662
0.157088
0.148535
0.126557
0.146811
0.12098
0.105275
0.064066
0.0513069
0.0565451
0.0562247
0.0411458
0.0327321
0.0246722
0.0213799
0.21
0.21
0.15
0.17
0.24
0.21
0.21
0.2
0.2
0.17
0.22
0.24
0.17
0.19
0.16
0.18
0.19
0.18
0.19
0.21
0.18
0.2
0.21
0.21
0.24
0.23
0.17
0.19
0.15
0.17
0.24
0.21
0.21
0.21
0.23
0.16
0.18
0.21
0.24
0.18
0.15
0.22
0.15
0.24
0.22
0.17
0.18
0.21
0.21
0.18
0.17
0.16
0.19
0.21
0.23
0.22
0.16
0.15
0.15
0.2
0.16
0.15
0.18
0.17
0.22
0.23
0.18
0.19
0.179984
0.21915
0.233198
0.175966
0.142925
0.209833
0.17943
0.194003
0.183798
0.124545
0.16555
0.181529
0.197537
0.19718
0.147716
0.196829
0.172144
0.155704
0.180249
0.196533
0.166684
0.159069
0.0760898
0.0762288
0.0766492
0.0654169
0.0562032
0.0541858
0.0618328
0.0357914
0.0376862
0.0294693
0.18
0.18
0.24
0.22
0.18
0.18
0.19
0.22
0.22
0.19
0.16
0.18
0.21
0.21
0.19
0.16
0.2
0.17
0.17
0.16
0.23
0.17
0.21
0.24
0.18
0.21
0.17
0.15
0.22
0.22
0.17
0.15
0.22
0.15
0.17
0.18
0.2
0.16
0.15
0.23
0.21
0.16
0.22
0.23
0.16
0.23
0.17
0.2
0.2
0.24
0.15
0.22
0.2
0.23
0.23
0.17
0.22
0.15
0.18
0.17
0.17
0.21
0.15
0.16
0.19
0.16
0.23
0.179998
0.219687
0.205975
0.140671
0.144813
0.158479
0.129251
0.195737
0.151019
0.19988
0.140568
0.148339
0.156165
0.131245
0.172064
0.180081
0.171805
0.163595
0.196321
0.179993
0.196379
0.184946
0.144319
0.0858399
0.0699492
0.10178
0.081183
0.0588736
0.0648044
0.0379407
0.0398803
0.0306304
0.0292253
0.2
0.2
0.23
0.21
0.21
0.2
0.18
0.2
0.23
0.18
0.22
0.17
0.15
0.16
0.19
0.16
0.19
0.24
0.22
0.18
0.17
0.16
0.17
0.21
0.16
0.19
0.21
0.2
0.17
0.16
0.23
0.16
0.2
0.2
0.24
0.15
0.16
0.18
0.15
0.22
0.18
0.23
0.24
0.19
0.18
0.19
0.19
0.22
0.17
0.15
0.21
0.17
0.22
0.16
0.18
0.21
0.16
0.16
0.22
0.15
0.19
0.16
0.2
0.18
0.16
0.2
0.219999
0.239775
0.147538
0.180533
0.209592
0.184457
0.189024
0.169152
0.142346
0.174695
0.12403
0.189565
0.123171
0.131163
0.171923
0.179894
0.187932
0.130689
0.122513
0.147019
0.122529
0.179726
0.129574
0.117041
0.132574
0.118075
0.0959711
0.0693579
0.0690424
0.0522406
0.0564228
0.0445002
0.0273614
0.0160985
0.16
0.18
0.22
0.22
0.18
0.19
0.23
0.17
0.22
0.23
0.22
0.16
0.21
0.17
0.22
0.22
0.16
0.15
0.19
0.22
0.24
0.21
0.19
0.18
0.2
0.16
0.22
0.2
0.18
0.17
0.17
0.19
0.19
0.18
0.22
0.23
0.21
0.18
0.19
0.18
0.22
0.24
0.17
0.23
0.24
0.16
0.22
0.15
0.18
0.21
0.23
0.24
0.18
0.17
0.2
0.15
0.2
0.2
0.18
0.17
0.18
0.22
0.2
0.21
0.23
0.22
0.24
0.239995
0.179532
0.175868
0.225223
0.160993
0.182956
0.12795
0.160446
0.15052
0.132886
0.1819
0.139879
0.188768
0.122797
0.196271
0.196045
0.187772
0.163253
0.146934
0.171443
0.171461
0.177295
0.133171
0.100113
0.0894564
0.0744965
0.0784602
0.0766033
0.0696855
0.0463972
0.0386317
0.0232254
0.0158622
0.15
0.23
0.18
0.24
0.21
0.15
0.19
0.19
0.17
0.22
0.21
0.15
0.22
0.18
0.23
0.16
0.18
0.23
0.21
0.2
0.18
0.19
0.21
0.15
0.21
0.24
0.23
0.18
0.22
0.16
0.18
0.2
0.18
0.18
0.23
0.2
0.21
0.22
0.21
0.23
0.23
0.21
0.22
0.23
0.24
0.17
0.21
0.16
0.19
0.19
0.17
0.18
0.24
0.19
0.15
0.22
0.21
0.17
0.2
0.22
0.24
0.22
0.22
0.15
0.23
0.17
0.24
0.19
0.209983
0.219109
0.204017
0.19506
0.160354
0.164993
0.127855
0.194085
0.125066
0.182484
0.181394
0.139605
0.172103
0.139077
0.122612
0.187925
0.187857
0.196022
0.19606
0.179775
0.186795
0.168253
0.0909201
0.0878215
0.0992799
0.0831055
0.0737757
0.058979
0.0490289
0.0419464
0.0338378
0.0249329
0.17
0.15
0.17
0.17
0.2
0.24
0.16
0.2
0.24
0.2
0.21
0.18
0.16
0.16
0.21
0.16
0.16
0.2
0.15
0.16
0.15
0.19
0.17
0.21
0.15
0.21
0.2
0.16
0.21
0.24
0.24
0.17
0.15
0.17
0.21
0.22
0.16
0.19
0.2
0.18
0.2
0.24
0.17
0.15
0.24
0.19
0.23
0.18
0.23
0.18
0.23
0.17
0.19
0.21
0.19
0.23
0.21
0.17
0.15
0.19
0.24
0.17
0.2
0.17
0.17
0.159998
0.229984
0.179389
0.224113
0.223169
0.195884
0.13015
0.128556
0.178179
0.142677
0.141712
0.190679
0.181373
0.188866
0.122818
0.188085
0.130665
0.195897
0.155021
0.130538
0.187666
0.146905
0.146833
0.133408
0.104255
0.0796824
0.102719
0.0927349
0.05639
0.0737804
0.0526278
0.0406236
0.0301542
0.0243781
0.0195075
0.22
0.23
0.15
0.17
0.24
0.2
0.22
0.23
0.23
0.24
0.21
0.17
0.19
0.15
0.24
0.19
0.16
0.17
0.16
0.22
0.24
0.23
0.18
0.19
0.15
0.21
0.19
0.15
0.18
0.15
0.19
0.17
0.15
0.22
0.16
0.2
0.24
0.23
0.24
0.15
0.21
0.16
0.17
0.15
0.2
0.23
0.15
0.16
0.24
0.18
0.15
0.17
0.23
0.18
0.18
0.17
0.21
0.2
0.2
0.18
0.23
0.23
0.229999
0.199842
0.159154
0.20784
0.157239
0.225633
0.203472
0.226831
0.145406
0.203972
0.189711
0.169202
0.16713
0.124223
0.148343
0.155851
0.171634
0.130401
0.162808
0.178903
0.195064
0.154415
0.186998
0.162699
0.162812
0.171077
0.121602
0.179477
0.0875634
0.105833
0.0781641
0.0904927
0.0800798
0.067409
0.0611629
0.0373068
0.0381465
0.0230713
0.17
0.16
0.2
0.18
0.18
0.2
0.18
0.16
0.19
0.16
0.18
0.18
0.16
0.18
0.16
0.21
0.22
0.22
0.19
0.24
0.24
0.16
0.19
0.18
0.24
0.23
0.21
0.22
0.23
0.17
0.21
0.19
0.21
0.15
0.24
0.23
0.2
0.16
0.2
0.23
0.23
0.19
0.23
0.19
0.24
0.15
0.23
0.17
0.15
0.23
0.18
0.24
0.2
0.19
0.23
0.23
0.15
0.2
0.19
0.16
0.23998
0.149249
0.194068
0.138163
0.17671
0.160687
0.123023
0.137219
0.12749
0.142403
0.11784
0.132741
0.116196
0.138554
0.130023
0.152278
0.181969
0.135913
0.135784
0.150889
0.173671
0.128552
0.18199
0.159707
0.145006
0.145554
0.1615
0.138973
0.176977
0.159041
0.0969152
0.0682562
0.0824251
0.0807949
0.0551339
0.0645256
0.057848
0.0303864
0.0265941
0.0211865
)
;

boundaryField
{
    inlet
    {
        type            fixedValue;
        value           uniform 0;
    }
    outlet
    {
        type            zeroGradient;
    }
    walls
    {
        type            zeroGradient;
    }
}


// ************************************************************************* //
