/*--------------------------------*- C++ -*----------------------------------*\
| =========                 |                                                 |
| \\      /  F ield         | foam-extend: Open Source CFD                    |
|  \\    /   O peration     | Version:     5.0                                |
|   \\  /    A nd           | Web:         http://www.foam-extend.org         |
|    \\/     M anipulation  |                                                 |
\*---------------------------------------------------------------------------*/
FoamFile
{
    version     2.0;
    format      ascii;
    class       volScalarField;
    location    "2000";
    object      alpha.gas;
}
// * * * * * * * * * * * * * * * * * * * * * * * * * * * * * * * * * * * * * //

dimensions      [0 0 0 0 0 0 0];

internalField   nonuniform List<scalar> 
1000
(
0
0
0
0
0
0
0
0
0
0
0
0
0
0
0
0
0
0
0
0
0
0
0
0
0
0
0
0
0
0
0
0
0
0
0
0
0
0
0
0
0
0
0
0
0
0
0
0
0
0
0
0
0
0
0
0
0
0
0
0
0
0
0
0
0
1.84043e-27
3.42063e-15
3.97958e-10
8.25749e-08
1.2733e-06
5.73113e-06
0.000119503
0.000568404
0.00282973
0.00849134
0.0143113
0.0171253
0.0190964
0.0180724
0.0246615
0.0230809
0.0236618
0.0241739
0.0207577
0.0224712
0.0282694
0.0219212
0.0320506
0.0282459
0.0260288
0.0175245
0.023225
0.0284872
0.0248305
0.0247458
0.0307096
0.0343472
0.0386489
0.028691
0.0351576
0
0
0
0
0
0
0
0
0
0
0
0
0
0
0
0
0
0
0
0
0
0
0
0
0
0
0
0
0
0
0
0
0
0
0
0
0
0
0
0
0
0
0
0
0
0
0
0
0
0
0
0
0
0
0
0
0
0
0
0
0
0
0
0
0
8.39584e-12
7.85802e-07
0.000162213
0.0023746
0.00822136
0.0167333
0.0234543
0.0310597
0.0282463
0.0248999
0.022511
0.0230506
0.0313981
0.027245
0.0390568
0.0264189
0.0300284
0.0404108
0.0271671
0.0273701
0.0413383
0.0329121
0.0313012
0.0268213
0.0327353
0.0326304
0.0355422
0.0266517
0.0244675
0.030374
0.0351184
0.0312756
0.0307801
0.0302563
0.0382096
0
0
0
0
0
0
0
0
0
0
0
0
0
0
0
0
0
0
0
0
0
0
0
0
0
0
0
0
0
0
0
0
0
0
0
0
0
0
0
0
0
0
0
0
0
0
0
0
0
0
0
0
0
0
0
0
0
0
0
0
0
0
0
0
0
0
2.46031e-13
2.50136e-08
1.61363e-05
0.000849538
0.0068019
0.0140344
0.0170749
0.0301667
0.03057
0.0359966
0.0362023
0.0254547
0.03445
0.0384713
0.0424631
0.0428198
0.032284
0.0431708
0.0378556
0.0342959
0.0397505
0.0433796
0.0368573
0.0369364
0.0219411
0.025608
0.0296742
0.0291965
0.0285321
0.0312051
0.0413361
0.0302648
0.0393505
0.0459671
0
0
0
0
0
0
0
0
0
0
0
0
0
0
0
0
0
0
0
0
0
0
0
0
0
0
0
0
0
0
0
0
0
0
0
0
0
0
0
0
0
0
0
0
0
0
0
0
0
0
0
0
0
0
0
0
0
0
0
0
0
0
0
0
0
1.07636e-22
5.47657e-11
1.55889e-06
0.00031321
0.00402453
0.00932886
0.0151866
0.0215208
0.0207492
0.0342627
0.0289806
0.0401196
0.0294322
0.031661
0.0338348
0.0287546
0.037936
0.0399187
0.0381951
0.0364045
0.0436791
0.0400065
0.0435951
0.0410208
0.0330331
0.0233649
0.0223904
0.0368761
0.0355156
0.03034
0.0384004
0.0274143
0.0340529
0.0336812
0.0459486
0
0
0
0
0
0
0
0
0
0
0
0
0
0
0
0
0
0
0
0
0
0
0
0
0
0
0
0
0
0
0
0
0
0
0
0
0
0
0
0
0
0
0
0
0
0
0
0
0
0
0
0
0
0
0
0
0
0
0
0
0
0
0
2.00497e-218
0
6.6272e-12
6.70798e-07
0.000224606
0.00246171
0.00946689
0.0204077
0.0255433
0.0309764
0.0308476
0.0276539
0.0353048
0.0259705
0.0404355
0.0268285
0.0288374
0.0380774
0.040106
0.0420684
0.0293112
0.0274868
0.0329807
0.0274714
0.040268
0.0289938
0.0264801
0.0328099
0.0355192
0.0356172
0.0308616
0.0353929
0.0316143
0.0401011
0.0402415
0.0344735
0.0322462
0
0
0
0
0
0
0
0
0
0
0
0
0
0
0
0
0
0
0
0
0
0
0
0
0
0
0
0
0
0
0
0
0
0
0
0
0
0
0
0
0
0
0
0
0
0
0
0
0
0
0
0
0
0
0
0
0
0
0
0
5.38326e-314
2.08323e-159
9.50261e-113
3.44455e-66
3.07836e-36
7.35575e-19
3.61404e-10
5.26295e-06
0.000468153
0.00413154
0.0147765
0.0190066
0.0270441
0.0220503
0.0295542
0.0294802
0.0271135
0.0380997
0.0301212
0.0412323
0.027203
0.0437286
0.0439551
0.0422282
0.0367465
0.0330657
0.0385573
0.0385251
0.0398031
0.0306071
0.0265861
0.0285378
0.0281097
0.0340054
0.038807
0.0423938
0.0353093
0.0369249
0.0307207
0.0323477
0
0
0
0
0
0
0
0
0
0
0
0
0
0
0
0
0
0
0
0
0
0
0
0
0
0
0
0
0
0
0
0
0
0
0
0
0
0
0
0
0
0
0
0
0
0
0
0
0
0
0
0
0
0
0
0
0
0
0
7.43705e-214
4.48905e-95
2.16917e-51
2.17343e-38
1.97328e-21
5.38687e-15
5.74169e-13
1.03608e-11
9.74543e-09
1.72212e-05
0.000891224
0.00598328
0.0149397
0.0196459
0.0250075
0.0221446
0.0359154
0.0249338
0.0375155
0.0386056
0.0303952
0.0378974
0.0309228
0.0273882
0.0420749
0.0421426
0.0439782
0.0439396
0.040222
0.0417258
0.0379507
0.0234019
0.0265384
0.0350757
0.0351769
0.036742
0.0348913
0.0345354
0.0360165
0.0377866
0.0421881
0
0
0
0
0
0
0
0
0
0
0
0
0
0
0
0
0
0
0
0
0
0
0
0
0
0
0
0
0
0
0
0
0
0
0
0
0
0
0
0
0
0
0
0
0
0
0
0
0
0
0
0
0
0
0
0
0
0
0
3.58096e-62
9.02442e-31
2.88946e-19
2.60748e-15
1.0057e-09
3.52678e-07
2.00072e-06
1.60459e-05
0.000610816
0.00588726
0.0168308
0.0241157
0.0198502
0.0214443
0.0318208
0.0273229
0.0282881
0.0393211
0.038627
0.0411338
0.0271824
0.0419149
0.0293347
0.0441028
0.0349793
0.0294623
0.0423341
0.0330954
0.0330344
0.03002
0.0247514
0.0222373
0.0332993
0.0364074
0.026552
0.0393959
0.0340898
0.0317699
0.0291978
0.030433
0.0362802
0
0
0
0
0
0
0
0
0
0
0
0
0
0
0
0
0
0
0
0
0
0
0
0
0
0
0
0
0
0
0
0
0
0
0
0
0
0
0
0
0
0
0
0
0
0
0
0
0
0
0
0
0
0
0
0
0
0
0
2.44104e-20
1.79026e-12
9.70281e-09
8.63974e-07
0.000157976
0.000845791
0.00216012
0.0027607
0.00436719
0.00652788
0.013169
0.0145936
0.0260276
0.030289
0.0307983
0.0328702
0.0257769
0.0316572
0.034149
0.038366
0.0295989
0.037192
0.0410968
0.0449364
0.0355848
0.0430024
0.0373006
0.0371884
0.0389208
0.027551
0.0408318
0.0223138
0.0311586
0.0276803
0.0365698
0.0381931
0.0381535
0.0416473
0.0323794
0.0416832
0.0402592
0
0
0
0
0
0
0
0
0
0
0
0
0
0
0
0
0
0
0
0
0
0
0
0
0
0
0
0
0
0
0
0
0
0
0
0
0
0
0
0
0
0
0
0
0
0
0
0
0
0
0
0
0
0
0
0
0
0
9.67657e-17
4.92239e-09
2.01026e-05
0.000750617
0.00593206
0.0118374
0.0232905
0.0293126
0.0269766
0.0327813
0.0325101
0.0375971
0.0321595
0.0372588
0.0338038
0.0414462
0.0399765
0.0477215
0.0580309
0.0440867
0.0442158
0.0491108
0.0563291
0.0414477
0.05801
0.0502931
0.0449936
0.0444464
0.0484998
0.0410232
0.0513395
0.0461269
0.0321366
0.0269368
0.0365938
0.0413861
0.0329522
0.0434275
0.0467185
0.0315313
0.0342075
0.0395055
)
;

boundaryField
{
    inlet
    {
        type            fixedValue;
        value           uniform 0.1;
    }
    outlet
    {
        type            zeroGradient;
    }
    walls
    {
        type            zeroGradient;
    }
}


// ************************************************************************* //
