/*--------------------------------*- C++ -*----------------------------------*\
| =========                 |                                                 |
| \\      /  F ield         | foam-extend: Open Source CFD                    |
|  \\    /   O peration     | Version:     5.0                                |
|   \\  /    A nd           | Web:         http://www.foam-extend.org         |
|    \\/     M anipulation  |                                                 |
\*---------------------------------------------------------------------------*/
FoamFile
{
    version     2.0;
    format      ascii;
    class       volScalarField;
    location    "2000";
    object      p;
}
// * * * * * * * * * * * * * * * * * * * * * * * * * * * * * * * * * * * * * //

dimensions      [1 -1 -2 0 0 0 0];

internalField   nonuniform List<scalar> 
1000
(
0.101067
0.103151
0.105208
0.107248
0.109277
0.111297
0.113312
0.115323
0.117331
0.119337
0.121341
0.123345
0.125347
0.127349
0.12935
0.131351
0.133351
0.135352
0.137352
0.139352
0.141353
0.143353
0.145353
0.147353
0.149353
0.151353
0.153353
0.155353
0.157353
0.159353
0.161353
0.163353
0.165353
0.167353
0.169353
0.171353
0.173353
0.175353
0.177353
0.179353
0.181353
0.183353
0.185353
0.187353
0.189353
0.191353
0.193352
0.195352
0.197352
0.199351
0.201351
0.20335
0.205348
0.207347
0.209344
0.211341
0.213336
0.21533
0.217322
0.219311
0.221297
0.223277
0.225253
0.227221
0.229182
0.231133
0.233075
0.235009
0.236943
0.238871
0.240767
0.242603
0.244374
0.246098
0.247798
0.249441
0.251028
0.252578
0.254105
0.255619
0.257121
0.258617
0.260109
0.261598
0.263085
0.26457
0.266052
0.267531
0.269159
0.271239
0.273373
0.275407
0.277307
0.279077
0.280751
0.282331
0.283799
0.285149
0.286365
0.287469
0.101038
0.1031
0.105147
0.107181
0.109206
0.111224
0.113238
0.115248
0.117255
0.11926
0.121264
0.123267
0.125269
0.127271
0.129272
0.131272
0.133273
0.135274
0.137274
0.139274
0.141274
0.143274
0.145274
0.147275
0.149275
0.151275
0.153275
0.155275
0.157275
0.159275
0.161275
0.163275
0.165275
0.167275
0.169275
0.171275
0.173275
0.175275
0.177275
0.179275
0.181275
0.183275
0.185275
0.187274
0.189274
0.191274
0.193274
0.195274
0.197273
0.199273
0.201272
0.203271
0.20527
0.207269
0.209266
0.211263
0.213259
0.215254
0.217246
0.219236
0.221223
0.223205
0.225181
0.227151
0.229112
0.231064
0.233004
0.234932
0.236871
0.238833
0.240763
0.242617
0.24439
0.246101
0.247766
0.249388
0.250969
0.252519
0.254047
0.25556
0.257062
0.258558
0.260049
0.261538
0.263026
0.264512
0.265997
0.267483
0.269093
0.271125
0.27329
0.275329
0.277219
0.278997
0.280678
0.282256
0.283718
0.285064
0.286294
0.287406
0.101023
0.103064
0.105097
0.107123
0.109142
0.111157
0.113167
0.115175
0.117181
0.119185
0.121188
0.12319
0.125192
0.127193
0.129194
0.131194
0.133195
0.135195
0.137196
0.139196
0.141196
0.143196
0.145196
0.147196
0.149196
0.151196
0.153196
0.155196
0.157196
0.159196
0.161196
0.163196
0.165196
0.167196
0.169196
0.171196
0.173196
0.175196
0.177196
0.179196
0.181196
0.183196
0.185196
0.187196
0.189196
0.191196
0.193196
0.195196
0.197195
0.199195
0.201194
0.203194
0.205193
0.207191
0.20919
0.211187
0.213184
0.215179
0.217173
0.219165
0.221153
0.223137
0.225116
0.227088
0.229052
0.231006
0.23295
0.234886
0.23682
0.238762
0.240716
0.242611
0.2444
0.246116
0.247763
0.249366
0.250933
0.252473
0.253997
0.255508
0.257009
0.258503
0.259993
0.261482
0.262969
0.264457
0.265946
0.267437
0.269017
0.271023
0.273176
0.275223
0.277142
0.27893
0.280608
0.282184
0.283651
0.284993
0.286234
0.287352
0.101013
0.103036
0.105056
0.107071
0.109083
0.111092
0.113099
0.115104
0.117108
0.11911
0.121112
0.123114
0.125115
0.127116
0.129116
0.131117
0.133117
0.135117
0.137117
0.139117
0.141118
0.143118
0.145118
0.147118
0.149118
0.151118
0.153118
0.155118
0.157118
0.159118
0.161118
0.163118
0.165118
0.167118
0.169118
0.171118
0.173118
0.175118
0.177118
0.179118
0.181118
0.183118
0.185118
0.187118
0.189118
0.191118
0.193117
0.195117
0.197117
0.199117
0.201117
0.203116
0.205116
0.207115
0.209114
0.211112
0.21311
0.215107
0.217102
0.219096
0.221088
0.223076
0.225058
0.227034
0.229002
0.230959
0.232905
0.234841
0.236777
0.238747
0.24072
0.242607
0.244391
0.24609
0.247737
0.24933
0.250893
0.252428
0.253948
0.255457
0.256955
0.258449
0.259938
0.261426
0.262914
0.264403
0.265895
0.267392
0.268948
0.270896
0.273059
0.275126
0.277074
0.278869
0.280546
0.282121
0.283575
0.284924
0.286158
0.287275
0.101004
0.103012
0.105018
0.107023
0.109027
0.111031
0.113033
0.115035
0.117036
0.119037
0.121037
0.123038
0.125038
0.127039
0.129039
0.131039
0.133039
0.135039
0.137039
0.139039
0.141039
0.143039
0.145039
0.147039
0.149039
0.151039
0.153039
0.155039
0.157039
0.159039
0.161039
0.163039
0.165039
0.167039
0.169039
0.171039
0.173039
0.175039
0.177039
0.179039
0.181039
0.183039
0.185039
0.187039
0.189039
0.191039
0.193039
0.195039
0.197039
0.199039
0.201039
0.203039
0.205039
0.207038
0.209038
0.211037
0.213036
0.215035
0.217033
0.21903
0.221026
0.223019
0.225007
0.226989
0.228961
0.230922
0.232869
0.234803
0.236758
0.238757
0.240732
0.242598
0.244368
0.246057
0.247693
0.249286
0.250845
0.252382
0.253899
0.255405
0.256902
0.258394
0.259882
0.261369
0.262857
0.264347
0.265842
0.267344
0.268894
0.27077
0.27294
0.275048
0.276995
0.278797
0.280484
0.282054
0.283516
0.28486
0.286081
0.287175
0.100996
0.102988
0.104982
0.106977
0.108973
0.110969
0.112967
0.114965
0.116964
0.118963
0.120963
0.122962
0.124962
0.126962
0.128961
0.130961
0.132961
0.134961
0.136961
0.138961
0.140961
0.142961
0.144961
0.146961
0.148961
0.150961
0.152961
0.154961
0.156961
0.158961
0.160961
0.162961
0.164961
0.166961
0.168961
0.170961
0.172961
0.174961
0.176961
0.178961
0.180961
0.182961
0.184961
0.186961
0.188961
0.190961
0.192961
0.194961
0.196961
0.198961
0.200961
0.202961
0.204962
0.206962
0.208962
0.210963
0.212963
0.214964
0.216965
0.218966
0.220967
0.222967
0.224963
0.226953
0.228933
0.230899
0.232851
0.234792
0.236735
0.238714
0.240697
0.242571
0.244343
0.246025
0.247657
0.249247
0.250802
0.252338
0.253852
0.255355
0.256849
0.258339
0.259826
0.261312
0.262799
0.264288
0.265781
0.267277
0.268813
0.2707
0.272868
0.27496
0.276909
0.278727
0.280421
0.281993
0.283444
0.284785
0.286002
0.287095
0.100987
0.102964
0.104944
0.106929
0.108917
0.110908
0.112901
0.114896
0.116892
0.11889
0.120888
0.122886
0.124885
0.126884
0.128884
0.130883
0.132883
0.134883
0.136883
0.138883
0.140883
0.142882
0.144882
0.146882
0.148882
0.150882
0.152882
0.154882
0.156882
0.158882
0.160882
0.162882
0.164882
0.166882
0.168882
0.170882
0.172882
0.174882
0.176882
0.178882
0.180882
0.182882
0.184882
0.186882
0.188883
0.190883
0.192883
0.194883
0.196883
0.198883
0.200884
0.202884
0.204885
0.206885
0.208887
0.210888
0.21289
0.214893
0.216897
0.218902
0.220909
0.222917
0.224925
0.226928
0.228917
0.23089
0.232844
0.234788
0.236734
0.238684
0.240635
0.242523
0.244298
0.245986
0.247612
0.249203
0.250755
0.252289
0.253801
0.255301
0.256794
0.258282
0.259768
0.261253
0.262739
0.264227
0.265717
0.267212
0.268749
0.270609
0.272782
0.274877
0.276838
0.278653
0.280346
0.281915
0.283367
0.284708
0.285934
0.287037
0.100977
0.102936
0.104903
0.106877
0.108858
0.110844
0.112833
0.114825
0.116819
0.118815
0.120812
0.12281
0.124808
0.126807
0.128806
0.130806
0.132805
0.134805
0.136805
0.138804
0.140804
0.142804
0.144804
0.146804
0.148804
0.150804
0.152804
0.154804
0.156804
0.158804
0.160804
0.162804
0.164804
0.166804
0.168804
0.170804
0.172804
0.174804
0.176804
0.178804
0.180804
0.182804
0.184804
0.186804
0.188804
0.190804
0.192804
0.194805
0.196805
0.198805
0.200806
0.202806
0.204807
0.206809
0.208811
0.210813
0.212816
0.214821
0.216827
0.218836
0.22085
0.222869
0.224893
0.226914
0.228919
0.230898
0.232848
0.234783
0.236748
0.238728
0.240639
0.24247
0.244229
0.245919
0.247548
0.249139
0.250698
0.25223
0.253743
0.255243
0.256736
0.258223
0.259708
0.261192
0.262677
0.264163
0.265649
0.267127
0.268671
0.270581
0.272715
0.274804
0.276756
0.278567
0.28027
0.281838
0.28329
0.284627
0.285855
0.286959
0.100962
0.1029
0.104854
0.106819
0.108794
0.110776
0.112762
0.114752
0.116745
0.11874
0.120736
0.122733
0.124731
0.12673
0.128728
0.130728
0.132727
0.134727
0.136726
0.138726
0.140726
0.142726
0.144726
0.146726
0.148726
0.150725
0.152725
0.154725
0.156725
0.158725
0.160725
0.162725
0.164725
0.166725
0.168725
0.170725
0.172725
0.174725
0.176725
0.178725
0.180725
0.182726
0.184726
0.186726
0.188726
0.190726
0.192726
0.194726
0.196727
0.198727
0.200728
0.202729
0.20473
0.206732
0.208734
0.210737
0.212741
0.214747
0.216755
0.218767
0.220784
0.222814
0.224865
0.226918
0.22895
0.230936
0.232885
0.234812
0.236749
0.238699
0.240596
0.242431
0.24418
0.245862
0.247491
0.249079
0.250639
0.252172
0.253686
0.255185
0.256677
0.258163
0.259648
0.261131
0.262616
0.264103
0.265592
0.267088
0.268624
0.270434
0.272604
0.274709
0.276666
0.278496
0.280194
0.28177
0.283228
0.284558
0.285791
0.286892
0.100933
0.102849
0.104792
0.106752
0.108723
0.110703
0.112688
0.114677
0.116669
0.118663
0.120659
0.122655
0.124653
0.126651
0.12865
0.130649
0.132649
0.134648
0.136648
0.138648
0.140647
0.142647
0.144647
0.146647
0.148647
0.150647
0.152647
0.154647
0.156647
0.158647
0.160647
0.162647
0.164647
0.166647
0.168647
0.170647
0.172647
0.174647
0.176647
0.178647
0.180647
0.182647
0.184647
0.186647
0.188647
0.190647
0.192648
0.194648
0.196648
0.198649
0.20065
0.202651
0.204652
0.206654
0.208656
0.21066
0.212664
0.214671
0.216679
0.218691
0.220706
0.22274
0.224844
0.226971
0.229052
0.231032
0.232948
0.234858
0.236763
0.238666
0.240534
0.242355
0.244107
0.245797
0.247433
0.249029
0.250591
0.252121
0.253633
0.255133
0.256625
0.258109
0.259593
0.261076
0.26256
0.264047
0.265538
0.267034
0.268557
0.270377
0.27254
0.274624
0.27659
0.27842
0.280112
0.281699
0.283159
0.284483
0.285711
0.286815
)
;

boundaryField
{
    inlet
    {
        type            fluxPressure;
        gradient        nonuniform List<scalar> 10(0.00363636 0.00363636 0.00363636 0.00363636 0.00363636 0.00363636 0.00363636 0.00363636 0.00363636 0.00363636);
        value           nonuniform List<scalar> 10(0.287651 0.287588 0.287534 0.287457 0.287357 0.287277 0.287219 0.287141 0.287074 0.286997);
    }
    outlet
    {
        type            fixedValue;
        value           uniform 0.1;
    }
    walls
    {
        type            fluxPressure;
        gradient        uniform 0;
        value           nonuniform List<scalar> 
2200
(
0.101067
0.103151
0.105208
0.107248
0.109277
0.111297
0.113312
0.115323
0.117331
0.119337
0.121341
0.123345
0.125347
0.127349
0.12935
0.131351
0.133351
0.135352
0.137352
0.139352
0.141353
0.143353
0.145353
0.147353
0.149353
0.151353
0.153353
0.155353
0.157353
0.159353
0.161353
0.163353
0.165353
0.167353
0.169353
0.171353
0.173353
0.175353
0.177353
0.179353
0.181353
0.183353
0.185353
0.187353
0.189353
0.191353
0.193352
0.195352
0.197352
0.199351
0.201351
0.20335
0.205348
0.207347
0.209344
0.211341
0.213336
0.21533
0.217322
0.219311
0.221297
0.223277
0.225253
0.227221
0.229182
0.231133
0.233075
0.235009
0.236943
0.238871
0.240767
0.242603
0.244374
0.246098
0.247798
0.249441
0.251028
0.252578
0.254105
0.255619
0.257121
0.258617
0.260109
0.261598
0.263085
0.26457
0.266052
0.267531
0.269159
0.271239
0.273373
0.275407
0.277307
0.279077
0.280751
0.282331
0.283799
0.285149
0.286365
0.287469
0.101038
0.1031
0.105147
0.107181
0.109206
0.111224
0.113238
0.115248
0.117255
0.11926
0.121264
0.123267
0.125269
0.127271
0.129272
0.131272
0.133273
0.135274
0.137274
0.139274
0.141274
0.143274
0.145274
0.147275
0.149275
0.151275
0.153275
0.155275
0.157275
0.159275
0.161275
0.163275
0.165275
0.167275
0.169275
0.171275
0.173275
0.175275
0.177275
0.179275
0.181275
0.183275
0.185275
0.187274
0.189274
0.191274
0.193274
0.195274
0.197273
0.199273
0.201272
0.203271
0.20527
0.207269
0.209266
0.211263
0.213259
0.215254
0.217246
0.219236
0.221223
0.223205
0.225181
0.227151
0.229112
0.231064
0.233004
0.234932
0.236871
0.238833
0.240763
0.242617
0.24439
0.246101
0.247766
0.249388
0.250969
0.252519
0.254047
0.25556
0.257062
0.258558
0.260049
0.261538
0.263026
0.264512
0.265997
0.267483
0.269093
0.271125
0.27329
0.275329
0.277219
0.278997
0.280678
0.282256
0.283718
0.285064
0.286294
0.287406
0.101023
0.103064
0.105097
0.107123
0.109142
0.111157
0.113167
0.115175
0.117181
0.119185
0.121188
0.12319
0.125192
0.127193
0.129194
0.131194
0.133195
0.135195
0.137196
0.139196
0.141196
0.143196
0.145196
0.147196
0.149196
0.151196
0.153196
0.155196
0.157196
0.159196
0.161196
0.163196
0.165196
0.167196
0.169196
0.171196
0.173196
0.175196
0.177196
0.179196
0.181196
0.183196
0.185196
0.187196
0.189196
0.191196
0.193196
0.195196
0.197195
0.199195
0.201194
0.203194
0.205193
0.207191
0.20919
0.211187
0.213184
0.215179
0.217173
0.219165
0.221153
0.223137
0.225116
0.227088
0.229052
0.231006
0.23295
0.234886
0.23682
0.238762
0.240716
0.242611
0.2444
0.246116
0.247763
0.249366
0.250933
0.252473
0.253997
0.255508
0.257009
0.258503
0.259993
0.261482
0.262969
0.264457
0.265946
0.267437
0.269017
0.271023
0.273176
0.275223
0.277142
0.27893
0.280608
0.282184
0.283651
0.284993
0.286234
0.287352
0.101013
0.103036
0.105056
0.107071
0.109083
0.111092
0.113099
0.115104
0.117108
0.11911
0.121112
0.123114
0.125115
0.127116
0.129116
0.131117
0.133117
0.135117
0.137117
0.139117
0.141118
0.143118
0.145118
0.147118
0.149118
0.151118
0.153118
0.155118
0.157118
0.159118
0.161118
0.163118
0.165118
0.167118
0.169118
0.171118
0.173118
0.175118
0.177118
0.179118
0.181118
0.183118
0.185118
0.187118
0.189118
0.191118
0.193117
0.195117
0.197117
0.199117
0.201117
0.203116
0.205116
0.207115
0.209114
0.211112
0.21311
0.215107
0.217102
0.219096
0.221088
0.223076
0.225058
0.227034
0.229002
0.230959
0.232905
0.234841
0.236777
0.238747
0.24072
0.242607
0.244391
0.24609
0.247737
0.24933
0.250893
0.252428
0.253948
0.255457
0.256955
0.258449
0.259938
0.261426
0.262914
0.264403
0.265895
0.267392
0.268948
0.270896
0.273059
0.275126
0.277074
0.278869
0.280546
0.282121
0.283575
0.284924
0.286158
0.287275
0.101004
0.103012
0.105018
0.107023
0.109027
0.111031
0.113033
0.115035
0.117036
0.119037
0.121037
0.123038
0.125038
0.127039
0.129039
0.131039
0.133039
0.135039
0.137039
0.139039
0.141039
0.143039
0.145039
0.147039
0.149039
0.151039
0.153039
0.155039
0.157039
0.159039
0.161039
0.163039
0.165039
0.167039
0.169039
0.171039
0.173039
0.175039
0.177039
0.179039
0.181039
0.183039
0.185039
0.187039
0.189039
0.191039
0.193039
0.195039
0.197039
0.199039
0.201039
0.203039
0.205039
0.207038
0.209038
0.211037
0.213036
0.215035
0.217033
0.21903
0.221026
0.223019
0.225007
0.226989
0.228961
0.230922
0.232869
0.234803
0.236758
0.238757
0.240732
0.242598
0.244368
0.246057
0.247693
0.249286
0.250845
0.252382
0.253899
0.255405
0.256902
0.258394
0.259882
0.261369
0.262857
0.264347
0.265842
0.267344
0.268894
0.27077
0.27294
0.275048
0.276995
0.278797
0.280484
0.282054
0.283516
0.28486
0.286081
0.287175
0.100996
0.102988
0.104982
0.106977
0.108973
0.110969
0.112967
0.114965
0.116964
0.118963
0.120963
0.122962
0.124962
0.126962
0.128961
0.130961
0.132961
0.134961
0.136961
0.138961
0.140961
0.142961
0.144961
0.146961
0.148961
0.150961
0.152961
0.154961
0.156961
0.158961
0.160961
0.162961
0.164961
0.166961
0.168961
0.170961
0.172961
0.174961
0.176961
0.178961
0.180961
0.182961
0.184961
0.186961
0.188961
0.190961
0.192961
0.194961
0.196961
0.198961
0.200961
0.202961
0.204962
0.206962
0.208962
0.210963
0.212963
0.214964
0.216965
0.218966
0.220967
0.222967
0.224963
0.226953
0.228933
0.230899
0.232851
0.234792
0.236735
0.238714
0.240697
0.242571
0.244343
0.246025
0.247657
0.249247
0.250802
0.252338
0.253852
0.255355
0.256849
0.258339
0.259826
0.261312
0.262799
0.264288
0.265781
0.267277
0.268813
0.2707
0.272868
0.27496
0.276909
0.278727
0.280421
0.281993
0.283444
0.284785
0.286002
0.287095
0.100987
0.102964
0.104944
0.106929
0.108917
0.110908
0.112901
0.114896
0.116892
0.11889
0.120888
0.122886
0.124885
0.126884
0.128884
0.130883
0.132883
0.134883
0.136883
0.138883
0.140883
0.142882
0.144882
0.146882
0.148882
0.150882
0.152882
0.154882
0.156882
0.158882
0.160882
0.162882
0.164882
0.166882
0.168882
0.170882
0.172882
0.174882
0.176882
0.178882
0.180882
0.182882
0.184882
0.186882
0.188883
0.190883
0.192883
0.194883
0.196883
0.198883
0.200884
0.202884
0.204885
0.206885
0.208887
0.210888
0.21289
0.214893
0.216897
0.218902
0.220909
0.222917
0.224925
0.226928
0.228917
0.23089
0.232844
0.234788
0.236734
0.238684
0.240635
0.242523
0.244298
0.245986
0.247612
0.249203
0.250755
0.252289
0.253801
0.255301
0.256794
0.258282
0.259768
0.261253
0.262739
0.264227
0.265717
0.267212
0.268749
0.270609
0.272782
0.274877
0.276838
0.278653
0.280346
0.281915
0.283367
0.284708
0.285934
0.287037
0.100977
0.102936
0.104903
0.106877
0.108858
0.110844
0.112833
0.114825
0.116819
0.118815
0.120812
0.12281
0.124808
0.126807
0.128806
0.130806
0.132805
0.134805
0.136805
0.138804
0.140804
0.142804
0.144804
0.146804
0.148804
0.150804
0.152804
0.154804
0.156804
0.158804
0.160804
0.162804
0.164804
0.166804
0.168804
0.170804
0.172804
0.174804
0.176804
0.178804
0.180804
0.182804
0.184804
0.186804
0.188804
0.190804
0.192804
0.194805
0.196805
0.198805
0.200806
0.202806
0.204807
0.206809
0.208811
0.210813
0.212816
0.214821
0.216827
0.218836
0.22085
0.222869
0.224893
0.226914
0.228919
0.230898
0.232848
0.234783
0.236748
0.238728
0.240639
0.24247
0.244229
0.245919
0.247548
0.249139
0.250698
0.25223
0.253743
0.255243
0.256736
0.258223
0.259708
0.261192
0.262677
0.264163
0.265649
0.267127
0.268671
0.270581
0.272715
0.274804
0.276756
0.278567
0.28027
0.281838
0.28329
0.284627
0.285855
0.286959
0.100962
0.1029
0.104854
0.106819
0.108794
0.110776
0.112762
0.114752
0.116745
0.11874
0.120736
0.122733
0.124731
0.12673
0.128728
0.130728
0.132727
0.134727
0.136726
0.138726
0.140726
0.142726
0.144726
0.146726
0.148726
0.150725
0.152725
0.154725
0.156725
0.158725
0.160725
0.162725
0.164725
0.166725
0.168725
0.170725
0.172725
0.174725
0.176725
0.178725
0.180725
0.182726
0.184726
0.186726
0.188726
0.190726
0.192726
0.194726
0.196727
0.198727
0.200728
0.202729
0.20473
0.206732
0.208734
0.210737
0.212741
0.214747
0.216755
0.218767
0.220784
0.222814
0.224865
0.226918
0.22895
0.230936
0.232885
0.234812
0.236749
0.238699
0.240596
0.242431
0.24418
0.245862
0.247491
0.249079
0.250639
0.252172
0.253686
0.255185
0.256677
0.258163
0.259648
0.261131
0.262616
0.264103
0.265592
0.267088
0.268624
0.270434
0.272604
0.274709
0.276666
0.278496
0.280194
0.28177
0.283228
0.284558
0.285791
0.286892
0.100933
0.102849
0.104792
0.106752
0.108723
0.110703
0.112688
0.114677
0.116669
0.118663
0.120659
0.122655
0.124653
0.126651
0.12865
0.130649
0.132649
0.134648
0.136648
0.138648
0.140647
0.142647
0.144647
0.146647
0.148647
0.150647
0.152647
0.154647
0.156647
0.158647
0.160647
0.162647
0.164647
0.166647
0.168647
0.170647
0.172647
0.174647
0.176647
0.178647
0.180647
0.182647
0.184647
0.186647
0.188647
0.190647
0.192648
0.194648
0.196648
0.198649
0.20065
0.202651
0.204652
0.206654
0.208656
0.21066
0.212664
0.214671
0.216679
0.218691
0.220706
0.22274
0.224844
0.226971
0.229052
0.231032
0.232948
0.234858
0.236763
0.238666
0.240534
0.242355
0.244107
0.245797
0.247433
0.249029
0.250591
0.252121
0.253633
0.255133
0.256625
0.258109
0.259593
0.261076
0.26256
0.264047
0.265538
0.267034
0.268557
0.270377
0.27254
0.274624
0.27659
0.27842
0.280112
0.281699
0.283159
0.284483
0.285711
0.286815
0.101067
0.103151
0.105208
0.107248
0.109277
0.111297
0.113312
0.115323
0.117331
0.119337
0.121341
0.123345
0.125347
0.127349
0.12935
0.131351
0.133351
0.135352
0.137352
0.139352
0.141353
0.143353
0.145353
0.147353
0.149353
0.151353
0.153353
0.155353
0.157353
0.159353
0.161353
0.163353
0.165353
0.167353
0.169353
0.171353
0.173353
0.175353
0.177353
0.179353
0.181353
0.183353
0.185353
0.187353
0.189353
0.191353
0.193352
0.195352
0.197352
0.199351
0.201351
0.20335
0.205348
0.207347
0.209344
0.211341
0.213336
0.21533
0.217322
0.219311
0.221297
0.223277
0.225253
0.227221
0.229182
0.231133
0.233075
0.235009
0.236943
0.238871
0.240767
0.242603
0.244374
0.246098
0.247798
0.249441
0.251028
0.252578
0.254105
0.255619
0.257121
0.258617
0.260109
0.261598
0.263085
0.26457
0.266052
0.267531
0.269159
0.271239
0.273373
0.275407
0.277307
0.279077
0.280751
0.282331
0.283799
0.285149
0.286365
0.287469
0.101038
0.1031
0.105147
0.107181
0.109206
0.111224
0.113238
0.115248
0.117255
0.11926
0.121264
0.123267
0.125269
0.127271
0.129272
0.131272
0.133273
0.135274
0.137274
0.139274
0.141274
0.143274
0.145274
0.147275
0.149275
0.151275
0.153275
0.155275
0.157275
0.159275
0.161275
0.163275
0.165275
0.167275
0.169275
0.171275
0.173275
0.175275
0.177275
0.179275
0.181275
0.183275
0.185275
0.187274
0.189274
0.191274
0.193274
0.195274
0.197273
0.199273
0.201272
0.203271
0.20527
0.207269
0.209266
0.211263
0.213259
0.215254
0.217246
0.219236
0.221223
0.223205
0.225181
0.227151
0.229112
0.231064
0.233004
0.234932
0.236871
0.238833
0.240763
0.242617
0.24439
0.246101
0.247766
0.249388
0.250969
0.252519
0.254047
0.25556
0.257062
0.258558
0.260049
0.261538
0.263026
0.264512
0.265997
0.267483
0.269093
0.271125
0.27329
0.275329
0.277219
0.278997
0.280678
0.282256
0.283718
0.285064
0.286294
0.287406
0.101023
0.103064
0.105097
0.107123
0.109142
0.111157
0.113167
0.115175
0.117181
0.119185
0.121188
0.12319
0.125192
0.127193
0.129194
0.131194
0.133195
0.135195
0.137196
0.139196
0.141196
0.143196
0.145196
0.147196
0.149196
0.151196
0.153196
0.155196
0.157196
0.159196
0.161196
0.163196
0.165196
0.167196
0.169196
0.171196
0.173196
0.175196
0.177196
0.179196
0.181196
0.183196
0.185196
0.187196
0.189196
0.191196
0.193196
0.195196
0.197195
0.199195
0.201194
0.203194
0.205193
0.207191
0.20919
0.211187
0.213184
0.215179
0.217173
0.219165
0.221153
0.223137
0.225116
0.227088
0.229052
0.231006
0.23295
0.234886
0.23682
0.238762
0.240716
0.242611
0.2444
0.246116
0.247763
0.249366
0.250933
0.252473
0.253997
0.255508
0.257009
0.258503
0.259993
0.261482
0.262969
0.264457
0.265946
0.267437
0.269017
0.271023
0.273176
0.275223
0.277142
0.27893
0.280608
0.282184
0.283651
0.284993
0.286234
0.287352
0.101013
0.103036
0.105056
0.107071
0.109083
0.111092
0.113099
0.115104
0.117108
0.11911
0.121112
0.123114
0.125115
0.127116
0.129116
0.131117
0.133117
0.135117
0.137117
0.139117
0.141118
0.143118
0.145118
0.147118
0.149118
0.151118
0.153118
0.155118
0.157118
0.159118
0.161118
0.163118
0.165118
0.167118
0.169118
0.171118
0.173118
0.175118
0.177118
0.179118
0.181118
0.183118
0.185118
0.187118
0.189118
0.191118
0.193117
0.195117
0.197117
0.199117
0.201117
0.203116
0.205116
0.207115
0.209114
0.211112
0.21311
0.215107
0.217102
0.219096
0.221088
0.223076
0.225058
0.227034
0.229002
0.230959
0.232905
0.234841
0.236777
0.238747
0.24072
0.242607
0.244391
0.24609
0.247737
0.24933
0.250893
0.252428
0.253948
0.255457
0.256955
0.258449
0.259938
0.261426
0.262914
0.264403
0.265895
0.267392
0.268948
0.270896
0.273059
0.275126
0.277074
0.278869
0.280546
0.282121
0.283575
0.284924
0.286158
0.287275
0.101004
0.103012
0.105018
0.107023
0.109027
0.111031
0.113033
0.115035
0.117036
0.119037
0.121037
0.123038
0.125038
0.127039
0.129039
0.131039
0.133039
0.135039
0.137039
0.139039
0.141039
0.143039
0.145039
0.147039
0.149039
0.151039
0.153039
0.155039
0.157039
0.159039
0.161039
0.163039
0.165039
0.167039
0.169039
0.171039
0.173039
0.175039
0.177039
0.179039
0.181039
0.183039
0.185039
0.187039
0.189039
0.191039
0.193039
0.195039
0.197039
0.199039
0.201039
0.203039
0.205039
0.207038
0.209038
0.211037
0.213036
0.215035
0.217033
0.21903
0.221026
0.223019
0.225007
0.226989
0.228961
0.230922
0.232869
0.234803
0.236758
0.238757
0.240732
0.242598
0.244368
0.246057
0.247693
0.249286
0.250845
0.252382
0.253899
0.255405
0.256902
0.258394
0.259882
0.261369
0.262857
0.264347
0.265842
0.267344
0.268894
0.27077
0.27294
0.275048
0.276995
0.278797
0.280484
0.282054
0.283516
0.28486
0.286081
0.287175
0.100996
0.102988
0.104982
0.106977
0.108973
0.110969
0.112967
0.114965
0.116964
0.118963
0.120963
0.122962
0.124962
0.126962
0.128961
0.130961
0.132961
0.134961
0.136961
0.138961
0.140961
0.142961
0.144961
0.146961
0.148961
0.150961
0.152961
0.154961
0.156961
0.158961
0.160961
0.162961
0.164961
0.166961
0.168961
0.170961
0.172961
0.174961
0.176961
0.178961
0.180961
0.182961
0.184961
0.186961
0.188961
0.190961
0.192961
0.194961
0.196961
0.198961
0.200961
0.202961
0.204962
0.206962
0.208962
0.210963
0.212963
0.214964
0.216965
0.218966
0.220967
0.222967
0.224963
0.226953
0.228933
0.230899
0.232851
0.234792
0.236735
0.238714
0.240697
0.242571
0.244343
0.246025
0.247657
0.249247
0.250802
0.252338
0.253852
0.255355
0.256849
0.258339
0.259826
0.261312
0.262799
0.264288
0.265781
0.267277
0.268813
0.2707
0.272868
0.27496
0.276909
0.278727
0.280421
0.281993
0.283444
0.284785
0.286002
0.287095
0.100987
0.102964
0.104944
0.106929
0.108917
0.110908
0.112901
0.114896
0.116892
0.11889
0.120888
0.122886
0.124885
0.126884
0.128884
0.130883
0.132883
0.134883
0.136883
0.138883
0.140883
0.142882
0.144882
0.146882
0.148882
0.150882
0.152882
0.154882
0.156882
0.158882
0.160882
0.162882
0.164882
0.166882
0.168882
0.170882
0.172882
0.174882
0.176882
0.178882
0.180882
0.182882
0.184882
0.186882
0.188883
0.190883
0.192883
0.194883
0.196883
0.198883
0.200884
0.202884
0.204885
0.206885
0.208887
0.210888
0.21289
0.214893
0.216897
0.218902
0.220909
0.222917
0.224925
0.226928
0.228917
0.23089
0.232844
0.234788
0.236734
0.238684
0.240635
0.242523
0.244298
0.245986
0.247612
0.249203
0.250755
0.252289
0.253801
0.255301
0.256794
0.258282
0.259768
0.261253
0.262739
0.264227
0.265717
0.267212
0.268749
0.270609
0.272782
0.274877
0.276838
0.278653
0.280346
0.281915
0.283367
0.284708
0.285934
0.287037
0.100977
0.102936
0.104903
0.106877
0.108858
0.110844
0.112833
0.114825
0.116819
0.118815
0.120812
0.12281
0.124808
0.126807
0.128806
0.130806
0.132805
0.134805
0.136805
0.138804
0.140804
0.142804
0.144804
0.146804
0.148804
0.150804
0.152804
0.154804
0.156804
0.158804
0.160804
0.162804
0.164804
0.166804
0.168804
0.170804
0.172804
0.174804
0.176804
0.178804
0.180804
0.182804
0.184804
0.186804
0.188804
0.190804
0.192804
0.194805
0.196805
0.198805
0.200806
0.202806
0.204807
0.206809
0.208811
0.210813
0.212816
0.214821
0.216827
0.218836
0.22085
0.222869
0.224893
0.226914
0.228919
0.230898
0.232848
0.234783
0.236748
0.238728
0.240639
0.24247
0.244229
0.245919
0.247548
0.249139
0.250698
0.25223
0.253743
0.255243
0.256736
0.258223
0.259708
0.261192
0.262677
0.264163
0.265649
0.267127
0.268671
0.270581
0.272715
0.274804
0.276756
0.278567
0.28027
0.281838
0.28329
0.284627
0.285855
0.286959
0.100962
0.1029
0.104854
0.106819
0.108794
0.110776
0.112762
0.114752
0.116745
0.11874
0.120736
0.122733
0.124731
0.12673
0.128728
0.130728
0.132727
0.134727
0.136726
0.138726
0.140726
0.142726
0.144726
0.146726
0.148726
0.150725
0.152725
0.154725
0.156725
0.158725
0.160725
0.162725
0.164725
0.166725
0.168725
0.170725
0.172725
0.174725
0.176725
0.178725
0.180725
0.182726
0.184726
0.186726
0.188726
0.190726
0.192726
0.194726
0.196727
0.198727
0.200728
0.202729
0.20473
0.206732
0.208734
0.210737
0.212741
0.214747
0.216755
0.218767
0.220784
0.222814
0.224865
0.226918
0.22895
0.230936
0.232885
0.234812
0.236749
0.238699
0.240596
0.242431
0.24418
0.245862
0.247491
0.249079
0.250639
0.252172
0.253686
0.255185
0.256677
0.258163
0.259648
0.261131
0.262616
0.264103
0.265592
0.267088
0.268624
0.270434
0.272604
0.274709
0.276666
0.278496
0.280194
0.28177
0.283228
0.284558
0.285791
0.286892
0.100933
0.102849
0.104792
0.106752
0.108723
0.110703
0.112688
0.114677
0.116669
0.118663
0.120659
0.122655
0.124653
0.126651
0.12865
0.130649
0.132649
0.134648
0.136648
0.138648
0.140647
0.142647
0.144647
0.146647
0.148647
0.150647
0.152647
0.154647
0.156647
0.158647
0.160647
0.162647
0.164647
0.166647
0.168647
0.170647
0.172647
0.174647
0.176647
0.178647
0.180647
0.182647
0.184647
0.186647
0.188647
0.190647
0.192648
0.194648
0.196648
0.198649
0.20065
0.202651
0.204652
0.206654
0.208656
0.21066
0.212664
0.214671
0.216679
0.218691
0.220706
0.22274
0.224844
0.226971
0.229052
0.231032
0.232948
0.234858
0.236763
0.238666
0.240534
0.242355
0.244107
0.245797
0.247433
0.249029
0.250591
0.252121
0.253633
0.255133
0.256625
0.258109
0.259593
0.261076
0.26256
0.264047
0.265538
0.267034
0.268557
0.270377
0.27254
0.274624
0.27659
0.27842
0.280112
0.281699
0.283159
0.284483
0.285711
0.286815
0.101067
0.103151
0.105208
0.107248
0.109277
0.111297
0.113312
0.115323
0.117331
0.119337
0.121341
0.123345
0.125347
0.127349
0.12935
0.131351
0.133351
0.135352
0.137352
0.139352
0.141353
0.143353
0.145353
0.147353
0.149353
0.151353
0.153353
0.155353
0.157353
0.159353
0.161353
0.163353
0.165353
0.167353
0.169353
0.171353
0.173353
0.175353
0.177353
0.179353
0.181353
0.183353
0.185353
0.187353
0.189353
0.191353
0.193352
0.195352
0.197352
0.199351
0.201351
0.20335
0.205348
0.207347
0.209344
0.211341
0.213336
0.21533
0.217322
0.219311
0.221297
0.223277
0.225253
0.227221
0.229182
0.231133
0.233075
0.235009
0.236943
0.238871
0.240767
0.242603
0.244374
0.246098
0.247798
0.249441
0.251028
0.252578
0.254105
0.255619
0.257121
0.258617
0.260109
0.261598
0.263085
0.26457
0.266052
0.267531
0.269159
0.271239
0.273373
0.275407
0.277307
0.279077
0.280751
0.282331
0.283799
0.285149
0.286365
0.287469
0.100933
0.102849
0.104792
0.106752
0.108723
0.110703
0.112688
0.114677
0.116669
0.118663
0.120659
0.122655
0.124653
0.126651
0.12865
0.130649
0.132649
0.134648
0.136648
0.138648
0.140647
0.142647
0.144647
0.146647
0.148647
0.150647
0.152647
0.154647
0.156647
0.158647
0.160647
0.162647
0.164647
0.166647
0.168647
0.170647
0.172647
0.174647
0.176647
0.178647
0.180647
0.182647
0.184647
0.186647
0.188647
0.190647
0.192648
0.194648
0.196648
0.198649
0.20065
0.202651
0.204652
0.206654
0.208656
0.21066
0.212664
0.214671
0.216679
0.218691
0.220706
0.22274
0.224844
0.226971
0.229052
0.231032
0.232948
0.234858
0.236763
0.238666
0.240534
0.242355
0.244107
0.245797
0.247433
0.249029
0.250591
0.252121
0.253633
0.255133
0.256625
0.258109
0.259593
0.261076
0.26256
0.264047
0.265538