/*--------------------------------*- C++ -*----------------------------------*\
| =========                 |                                                 |
| \\      /  F ield         | foam-extend: Open Source CFD                    |
|  \\    /   O peration     | Version:     5.0                                |
|   \\  /    A nd           | Web:         http://www.foam-extend.org         |
|    \\/     M anipulation  |                                                 |
\*---------------------------------------------------------------------------*/
FoamFile
{
    version     2.0;
    format      ascii;
    class       surfaceScalarField;
    location    "2000";
    object      phi;
}
// * * * * * * * * * * * * * * * * * * * * * * * * * * * * * * * * * * * * * //

dimensions      [0 3 -1 0 0 0 0];

internalField   nonuniform List<scalar> 
1890
(
-1.04211e-05
-2.47692e-07
-1.02847e-05
-1.36398e-07
-1.01998e-05
-8.48613e-08
-1.0143e-05
-5.67892e-08
-1.01034e-05
-3.95807e-08
-1.00752e-05
-2.82063e-08
-1.00549e-05
-2.03458e-08
-1.00401e-05
-1.4774e-08
-1.00293e-05
-1.07678e-08
-1.00215e-05
-7.86411e-09
-1.00157e-05
-5.75009e-09
-1.00115e-05
-4.2071e-09
-1.00084e-05
-3.07929e-09
-1.00062e-05
-2.25429e-09
-1.00045e-05
-1.65053e-09
-1.00033e-05
-1.20856e-09
-1.00024e-05
-8.84984e-10
-1.00018e-05
-6.48066e-10
-1.00013e-05
-4.74595e-10
-1.0001e-05
-3.47579e-10
-1.00007e-05
-2.54583e-10
-1.00005e-05
-1.86501e-10
-1.00004e-05
-1.36672e-10
-1.00003e-05
-1.00216e-10
-1.00002e-05
-7.35673e-11
-1.00002e-05
-5.41178e-11
-1.00001e-05
-3.99646e-11
-1.00001e-05
-2.97234e-11
-1.00001e-05
-2.23927e-11
-1e-05
-1.72559e-11
-1e-05
-1.38109e-11
-1e-05
-1.17213e-11
-1e-05
-1.07832e-11
-9.99999e-06
-1.09055e-11
-9.99998e-06
-1.21007e-11
-9.99997e-06
-1.4486e-11
-9.99995e-06
-1.82951e-11
-9.99993e-06
-2.39004e-11
-9.99989e-06
-3.18503e-11
-9.99985e-06
-4.29219e-11
-9.99979e-06
-5.81968e-11
-9.99971e-06
-7.91662e-11
-9.99961e-06
-1.07876e-10
-9.99946e-06
-1.47123e-10
-9.99926e-06
-2.00727e-10
-9.99898e-06
-2.73893e-10
-9.99861e-06
-3.73702e-10
-9.9981e-06
-5.09779e-10
-9.99741e-06
-6.95171e-10
-9.99646e-06
-9.47515e-10
-9.99517e-06
-1.29055e-09
-9.99341e-06
-1.75603e-09
-9.99103e-06
-2.38608e-09
-9.98779e-06
-3.2358e-09
-9.98341e-06
-4.37595e-09
-9.97752e-06
-5.89464e-09
-9.96962e-06
-7.89664e-09
-9.95913e-06
-1.04973e-08
-9.94532e-06
-1.38073e-08
-9.92741e-06
-1.79031e-08
-9.90463e-06
-2.2783e-08
-9.87632e-06
-2.83159e-08
-9.84211e-06
-3.42031e-08
-9.80215e-06
-3.99622e-08
-9.75732e-06
-4.48258e-08
-9.7104e-06
-4.69205e-08
-9.67147e-06
-3.89332e-08
-9.66622e-06
-5.25351e-09
-9.64306e-06
-2.31521e-08
-9.47962e-06
-1.63445e-07
-9.17014e-06
-3.09476e-07
-8.79155e-06
-3.78593e-07
-8.40328e-06
-3.88268e-07
-8.09655e-06
-3.0673e-07
-7.9587e-06
-1.37855e-07
-7.92933e-06
-2.93605e-08
-7.93779e-06
8.45887e-09
-7.95765e-06
1.98614e-08
-7.98284e-06
2.51881e-08
-8.01451e-06
3.16667e-08
-8.05281e-06
3.83025e-08
-8.09635e-06
4.3537e-08
-8.14491e-06
4.85633e-08
-8.19736e-06
5.24476e-08
-8.25075e-06
5.3392e-08
-8.30035e-06
4.95992e-08
-8.33568e-06
3.53311e-08
-8.33518e-06
-4.96201e-10
-8.42017e-06
8.49817e-08
-8.66929e-06
2.49124e-07
-8.78848e-06
1.19189e-07
-8.87844e-06
8.99589e-08
-9.01403e-06
1.35595e-07
-9.1328e-06
1.18762e-07
-9.22823e-06
9.54354e-08
-9.34181e-06
1.13575e-07
-9.50753e-06
1.65724e-07
-9.72775e-06
2.20223e-07
-9.88576e-06
1.58006e-07
1.1424e-07
-1.03098e-05
-3.17264e-07
-1.02331e-05
-2.13038e-07
-1.01717e-05
-1.46258e-07
-1.01258e-05
-1.02715e-07
-1.0092e-05
-7.33273e-08
-1.00674e-05
-5.28986e-08
-1.00493e-05
-3.84027e-08
-1.00361e-05
-2.79823e-08
-1.00264e-05
-2.04329e-08
-1.00194e-05
-1.49384e-08
-1.00142e-05
-1.0929e-08
-1.00104e-05
-7.99883e-09
-1.00076e-05
-5.8556e-09
-1.00056e-05
-4.28718e-09
-1.00041e-05
-3.13909e-09
-1.0003e-05
-2.29856e-09
-1.00022e-05
-1.68314e-09
-1.00016e-05
-1.23253e-09
-1.00012e-05
-9.02592e-10
-1.00009e-05
-6.61009e-10
-1.00006e-05
-4.84134e-10
-1.00005e-05
-3.5465e-10
-1.00003e-05
-2.59883e-10
-1.00003e-05
-1.90556e-10
-1.00002e-05
-1.39883e-10
-1.00001e-05
-1.02903e-10
-1.00001e-05
-7.5998e-11
-1.00001e-05
-5.65335e-11
-1.00001e-05
-4.26044e-11
-1e-05
-3.28475e-11
-1e-05
-2.63076e-11
-1e-05
-2.23447e-11
-1e-05
-2.0571e-11
-1e-05
-2.08129e-11
-9.99998e-06
-2.3094e-11
-9.99997e-06
-2.76372e-11
-9.99995e-06
-3.48867e-11
-9.99993e-06
-4.55515e-11
-9.9999e-06
-6.06746e-11
-9.99987e-06
-8.17345e-11
-9.99981e-06
-1.1079e-10
-9.99974e-06
-1.50678e-10
-9.99965e-06
-2.05293e-10
-9.99951e-06
-2.7996e-10
-9.99933e-06
-3.81954e-10
-9.99908e-06
-5.21189e-10
-9.99875e-06
-7.1117e-10
-9.99829e-06
-9.70263e-10
-9.99766e-06
-1.3234e-09
-9.9968e-06
-1.80433e-09
-9.99563e-06
-2.45863e-09
-9.99404e-06
-3.34746e-09
-9.99188e-06
-4.55242e-09
-9.98893e-06
-6.18111e-09
-9.98493e-06
-8.37326e-09
-9.97952e-06
-1.13058e-08
-9.97222e-06
-1.51945e-08
-9.96244e-06
-2.02853e-08
-9.94941e-06
-2.68287e-08
-9.93229e-06
-3.50218e-08
-9.91016e-06
-4.49127e-08
-9.8822e-06
-5.62776e-08
-9.84787e-06
-6.85339e-08
-9.80701e-06
-8.08199e-08
-9.75942e-06
-9.24202e-08
-9.70235e-06
-1.03987e-07
-9.61925e-06
-1.22039e-07
-9.4631e-06
-1.61402e-07
-9.34243e-06
-1.43819e-07
-9.45548e-06
-5.03917e-08
-9.62393e-06
-1.41026e-07
-9.69226e-06
-3.10259e-07
-9.71834e-06
-3.62191e-07
-9.64109e-06
-3.83985e-07
-9.51213e-06
-2.66808e-07
-9.39398e-06
-1.47513e-07
-9.32569e-06
-5.98284e-08
-9.3104e-06
4.57048e-09
-9.31297e-06
2.7759e-08
-9.32998e-06
4.86741e-08
-9.35401e-06
6.23384e-08
-9.38609e-06
7.56111e-08
-9.42385e-06
8.63297e-08
-9.46279e-06
9.1387e-08
-9.50039e-06
9.09865e-08
-9.53184e-06
8.10527e-08
-9.55585e-06
5.93398e-08
-9.58971e-06
3.33654e-08
-9.70917e-06
2.0444e-07
-9.74084e-06
2.80793e-07
-9.91505e-06
2.93396e-07
-1.01003e-05
2.75218e-07
-1.01229e-05
1.58212e-07
-1.01118e-05
1.07675e-07
-1.01473e-05
1.3089e-07
-1.01892e-05
1.55526e-07
-1.01588e-05
1.35261e-07
-1.01148e-05
1.76285e-07
-1.00634e-05
1.06559e-07
5.08477e-08
-1.02055e-05
-3.40791e-07
-1.01663e-05
-2.52231e-07
-1.01282e-05
-1.84419e-07
-1.00964e-05
-1.34484e-07
-1.00716e-05
-9.81152e-08
-1.00529e-05
-7.16582e-08
-1.00389e-05
-5.23843e-08
-1.00285e-05
-3.83196e-08
-1.00209e-05
-2.8043e-08
-1.00153e-05
-2.05276e-08
-1.00112e-05
-1.50286e-08
-1.00082e-05
-1.10037e-08
-1.0006e-05
-8.05714e-09
-1.00044e-05
-5.89978e-09
-1.00032e-05
-4.32015e-09
-1.00024e-05
-3.1635e-09
-1.00017e-05
-2.31655e-09
-1.00013e-05
-1.69638e-09
-1.00009e-05
-1.24227e-09
-1.00007e-05
-9.09772e-10
-1.00005e-05
-6.66329e-10
-1.00004e-05
-4.88115e-10
-1.00003e-05
-3.57683e-10
-1.00002e-05
-2.62266e-10
-1.00001e-05
-1.92523e-10
-1.00001e-05
-1.41629e-10
-1.00001e-05
-1.046e-10
-1.00001e-05
-7.78128e-11
-1e-05
-5.8644e-11
-1e-05
-4.52175e-11
-1e-05
-3.62187e-11
-1e-05
-3.07667e-11
-1e-05
-2.83276e-11
-1e-05
-2.86625e-11
-9.99999e-06
-3.18036e-11
-9.99998e-06
-3.8058e-11
-9.99997e-06
-4.80373e-11
-9.99995e-06
-6.27176e-11
-9.99993e-06
-8.35349e-11
-9.9999e-06
-1.12525e-10
-9.99985e-06
-1.52523e-10
-9.9998e-06
-2.07437e-10
-9.99972e-06
-2.82633e-10
-9.99961e-06
-3.8545e-10
-9.99947e-06
-5.25919e-10
-9.99927e-06
-7.17723e-10
-9.99901e-06
-9.79515e-10
-9.99864e-06
-1.3367e-09
-9.99814e-06
-1.82382e-09
-9.99746e-06
-2.48779e-09
-9.99652e-06
-3.39216e-09
-9.99525e-06
-4.62278e-09
-9.9935e-06
-6.29503e-09
-9.99112e-06
-8.56297e-09
-9.98787e-06
-1.16302e-08
-9.98341e-06
-1.57611e-08
-9.97731e-06
-2.12901e-08
-9.96898e-06
-2.86208e-08
-9.95761e-06
-3.82003e-08
-9.94219e-06
-5.04427e-08
-9.92153e-06
-6.55686e-08
-9.89446e-06
-8.33478e-08
-9.86016e-06
-1.02835e-07
-9.81861e-06
-1.22363e-07
-9.77098e-06
-1.40049e-07
-9.72047e-06
-1.54502e-07
-9.67748e-06
-1.65029e-07
-9.66935e-06
-1.69534e-07
-9.63615e-06
-1.77021e-07
-9.38423e-06
-3.02309e-07
-9.16075e-06
-3.645e-07
-9.17115e-06
-2.99858e-07
-9.27125e-06
-2.6209e-07
-9.5004e-06
-1.54838e-07
-9.62895e-06
-1.3826e-07
-9.71256e-06
-6.38973e-08
-9.74277e-06
-2.96164e-08
-9.7476e-06
9.39891e-09
-9.76305e-06
4.32106e-08
-9.7799e-06
6.55235e-08
-9.79852e-06
8.0957e-08
-9.81178e-06
8.88707e-08
-9.82216e-06
9.6708e-08
-9.8334e-06
1.02632e-07
-9.84459e-06
1.02175e-07
-9.85681e-06
9.32691e-08
-9.86757e-06
7.00983e-08
-9.86127e-06
2.70727e-08
-9.8316e-06
1.74766e-07
-9.96063e-06
4.09822e-07
-9.99585e-06
3.28616e-07
-9.96175e-06
2.41115e-07
-9.90909e-06
1.05561e-07
-9.86471e-06
6.32939e-08
-9.80561e-06
7.17813e-08
-9.72964e-06
7.95568e-08
-9.76078e-06
1.66405e-07
-9.7183e-06
1.33799e-07
-9.81156e-06
1.99821e-07
2.39291e-07
-1.0117e-05
-3.49662e-07
-1.00985e-05
-2.70675e-07
-1.00782e-05
-2.04701e-07
-1.006e-05
-1.52689e-07
-1.00452e-05
-1.12991e-07
-1.00336e-05
-8.32346e-08
-1.00248e-05
-6.11566e-08
-1.00183e-05
-4.4869e-08
-1.00134e-05
-3.28919e-08
-1.00098e-05
-2.41005e-08
-1.00072e-05
-1.76542e-08
-1.00053e-05
-1.29302e-08
-1.00039e-05
-9.46947e-09
-1.00028e-05
-6.93465e-09
-1.00021e-05
-5.07823e-09
-1.00015e-05
-3.71873e-09
-1.00011e-05
-2.72318e-09
-1.00008e-05
-1.99417e-09
-1.00006e-05
-1.46035e-09
-1.00004e-05
-1.06948e-09
-1.00003e-05
-7.83301e-10
-1.00002e-05
-5.738e-10
-1.00002e-05
-4.20471e-10
-1.00001e-05
-3.08303e-10
-1.00001e-05
-2.26318e-10
-1.00001e-05
-1.6649e-10
-1.00001e-05
-1.22963e-10
-1e-05
-9.14739e-11
-1e-05
-6.89415e-11
-1e-05
-5.31594e-11
-1e-05
-4.25824e-11
-1e-05
-3.61748e-11
-1e-05
-3.3309e-11
-1e-05
-3.3704e-11
-1e-05
-3.73977e-11
-9.99999e-06
-4.47513e-11
-9.99998e-06
-5.64841e-11
-9.99997e-06
-7.3744e-11
-9.99995e-06
-9.82198e-11
-9.99994e-06
-1.32306e-10
-9.99991e-06
-1.79337e-10
-9.99987e-06
-2.43913e-10
-9.99982e-06
-3.32348e-10
-9.99976e-06
-4.53287e-10
-9.99966e-06
-6.18547e-10
-9.99954e-06
-8.44266e-10
-9.99936e-06
-1.15247e-09
-9.99913e-06
-1.57319e-09
-9.9988e-06
-2.14739e-09
-9.99836e-06
-2.93084e-09
-9.99775e-06
-3.99946e-09
-9.99692e-06
-5.45647e-09
-9.99577e-06
-7.44195e-09
-9.99419e-06
-1.01456e-08
-9.992e-06
-1.38233e-08
-9.98894e-06
-1.88181e-08
-9.98465e-06
-2.5584e-08
-9.97856e-06
-3.47075e-08
-9.96985e-06
-4.6909e-08
-9.95731e-06
-6.29803e-08
-9.93931e-06
-8.35711e-08
-9.91395e-06
-1.0871e-07
-9.87969e-06
-1.37095e-07
-9.8363e-06
-1.6575e-07
-9.78544e-06
-1.90909e-07
-9.731e-06
-2.08945e-07
-9.68182e-06
-2.14199e-07
-9.65249e-06
-1.98871e-07
-9.54513e-06
-2.84381e-07
-9.44308e-06
-4.04354e-07
-9.42571e-06
-3.81875e-07
-9.46681e-06
-2.58758e-07
-9.5591e-06
-1.69796e-07
-9.61713e-06
-9.68106e-08
-9.73544e-06
-1.99417e-08
-9.79023e-06
-9.10592e-09
-9.84955e-06
2.96992e-08
-9.86556e-06
2.54046e-08
-9.87639e-06
5.40486e-08
-9.88296e-06
7.2093e-08
-9.88567e-06
8.36611e-08
-9.89276e-06
9.59664e-08
-9.90069e-06
1.04639e-07
-9.9079e-06
1.09839e-07
-9.91619e-06
1.10471e-07
-9.92889e-06
1.05968e-07
-9.95132e-06
9.25244e-08
-9.98097e-06
5.67189e-08
-9.89334e-06
8.71418e-08
-9.9029e-06
4.19378e-07
-9.91069e-06
3.36409e-07
-9.82127e-06
1.51699e-07
-9.86108e-06
1.45372e-07
-9.92313e-06
1.25341e-07
-9.92246e-06
7.11099e-08
-9.94999e-06
1.07084e-07
-9.84846e-06
6.48787e-08
-9.81074e-06
9.60796e-08
-9.81533e-06
2.04407e-07
4.23962e-07
-1.0038e-05
-3.52046e-07
-1.00326e-05
-2.76104e-07
-1.00262e-05
-2.11022e-07
-1.00203e-05
-1.58581e-07
-1.00154e-05
-1.17924e-07
-1.00115e-05
-8.71329e-08
-1.00085e-05
-6.41385e-08
-1.00063e-05
-4.71079e-08
-1.00046e-05
-3.4555e-08
-1.00034e-05
-2.53284e-08
-1.00025e-05
-1.85576e-08
-1.00018e-05
-1.35935e-08
-1.00013e-05
-9.95587e-09
-1.0001e-05
-7.29113e-09
-1.00007e-05
-5.33939e-09
-1.00005e-05
-3.91002e-09
-1.00004e-05
-2.86328e-09
-1.00003e-05
-2.09676e-09
-1.00002e-05
-1.53548e-09
-1.00002e-05
-1.1245e-09
-1.00001e-05
-8.23596e-10
-1.00001e-05
-6.03315e-10
-1.00001e-05
-4.42097e-10
-1e-05
-3.24159e-10
-1e-05
-2.37957e-10
-1e-05
-1.75052e-10
-1e-05
-1.29286e-10
-1e-05
-9.61788e-11
-1e-05
-7.24887e-11
-1e-05
-5.58963e-11
-1e-05
-4.47769e-11
-1e-05
-3.80413e-11
-1e-05
-3.50296e-11
-1e-05
-3.54462e-11
-1e-05
-3.93313e-11
-1e-05
-4.70648e-11
-1e-05
-5.94033e-11
-9.99999e-06
-7.75543e-11
-9.99999e-06
-1.03294e-10
-9.99998e-06
-1.39141e-10
-9.99997e-06
-1.88606e-10
-9.99996e-06
-2.56528e-10
-9.99994e-06
-3.49558e-10
-9.99992e-06
-4.76801e-10
-9.99989e-06
-6.50716e-10
-9.99984e-06
-8.88326e-10
-9.99978e-06
-1.2129e-09
-9.9997e-06
-1.65622e-09
-9.99959e-06
-2.26171e-09
-9.99943e-06
-3.08872e-09
-9.99921e-06
-4.21837e-09
-9.9989e-06
-5.76168e-09
-9.99848e-06
-7.87069e-09
-9.99787e-06
-1.07541e-08
-9.99699e-06
-1.46995e-08
-9.99571e-06
-2.01042e-08
-9.99377e-06
-2.75204e-08
-9.99076e-06
-3.77162e-08
-9.98592e-06
-5.17478e-08
-9.9779e-06
-7.09984e-08
-9.96445e-06
-9.70255e-08
-9.94233e-06
-1.30827e-07
-9.90834e-06
-1.71083e-07
-9.86146e-06
-2.12634e-07
-9.80347e-06
-2.48891e-07
-9.73619e-06
-2.76227e-07
-9.64947e-06
-3.00916e-07
-9.51129e-06
-3.37052e-07
-9.51955e-06
-2.76123e-07
-9.75288e-06
-1.7102e-07
-9.95948e-06
-1.75281e-07
-1.00453e-05
-1.72959e-07
-1.00588e-05
-1.56229e-07
-1.00619e-05
-9.37582e-08
-1.00184e-05
-6.34198e-08
-1.00006e-05
-2.69648e-08
-9.97243e-06
1.57476e-09
-9.96458e-06
1.75529e-08
-9.95181e-06
4.12808e-08
-9.94146e-06
6.17377e-08
-9.9446e-06
8.68066e-08
-9.94698e-06
9.83433e-08
-9.95171e-06
1.09365e-07
-9.95911e-06
1.17242e-07
-9.97258e-06
1.23938e-07
-9.99685e-06
1.30238e-07
-1.00468e-05
1.42492e-07
-1.01714e-05
1.81262e-07
-1.03575e-05
2.73251e-07
-1.01071e-05
1.69027e-07
-9.89833e-06
1.2762e-07
-9.93078e-06
1.8415e-07
-9.97496e-06
1.89553e-07
-9.96914e-06
1.19523e-07
-9.98117e-06
8.31436e-08
-9.94389e-06
6.98049e-08
-1.00237e-05
1.44647e-07
-1.01148e-05
1.8722e-07
-1.01457e-05
2.35278e-07
2.78288e-07
-9.96204e-06
-3.49662e-07
-9.96747e-06
-2.70675e-07
-9.97379e-06
-2.04701e-07
-9.97968e-06
-1.52689e-07
-9.98462e-06
-1.12991e-07
-9.98851e-06
-8.32346e-08
-9.9915e-06
-6.11565e-08
-9.99373e-06
-4.4869e-08
-9.9954e-06
-3.28918e-08
-9.99662e-06
-2.41005e-08
-9.99753e-06
-1.76542e-08
-9.99819e-06
-1.29302e-08
-9.99868e-06
-9.46942e-09
-9.99903e-06
-6.93461e-09
-9.99929e-06
-5.07818e-09
-9.99948e-06
-3.71869e-09
-9.99962e-06
-2.72314e-09
-9.99973e-06
-1.99413e-09
-9.9998e-06
-1.46031e-09
-9.99986e-06
-1.06944e-09
-9.9999e-06
-7.83267e-10
-9.99993e-06
-5.7377e-10
-9.99995e-06
-4.20443e-10
-9.99996e-06
-3.0828e-10
-9.99997e-06
-2.26299e-10
-9.99998e-06
-1.66475e-10
-9.99999e-06
-1.22951e-10
-9.99999e-06
-9.14666e-11
-1e-05
-6.89384e-11
-1e-05
-5.31605e-11
-1e-05
-4.25876e-11
-1e-05
-3.61837e-11
-1e-05
-3.33212e-11
-1e-05
-3.37192e-11
-1e-05
-3.74159e-11
-1e-05
-4.47729e-11
-1e-05
-5.65099e-11
-1e-05
-7.37755e-11
-1e-05
-9.82595e-11
-1e-05
-1.32359e-10
-1e-05
-1.79415e-10
-1.00001e-05
-2.44035e-10
-1.00001e-05
-3.32553e-10
-1.00001e-05
-4.53645e-10
-1.00001e-05
-6.19187e-10
-1.00002e-05
-8.45425e-10
-1.00002e-05
-1.15458e-09
-1.00003e-05
-1.57707e-09
-1.00004e-05
-2.15451e-09
-1.00006e-05
-2.94394e-09
-1.00008e-05
-4.02364e-09
-1.0001e-05
-5.50118e-09
-1.00014e-05
-7.525e-09
-1.00018e-05
-1.03008e-08
-1.00024e-05
-1.41162e-08
-1.00031e-05
-1.93786e-08
-1.0004e-05
-2.66771e-08
-1.00048e-05
-3.68892e-08
-1.00052e-05
-5.13677e-08
-1.00039e-05
-7.22399e-08
-9.99825e-06
-1.02706e-07
-9.98259e-06
-1.46489e-07
-9.94989e-06
-2.03778e-07
-9.89772e-06
-2.6481e-07
-9.83081e-06
-3.15796e-07
-9.76094e-06
-3.46098e-07
-9.70301e-06
-3.58841e-07
-9.66575e-06
-3.74314e-07
-9.55323e-06
-3.88649e-07
-9.48208e-06
-2.42163e-07
-9.58519e-06
-7.21777e-08
-9.66314e-06
-9.50002e-08
-9.75212e-06
-6.72488e-08
-9.77116e-06
-7.47184e-08
-9.82056e-06
-1.40215e-08
-9.83214e-06
-1.53828e-08
-9.85435e-06
2.37854e-08
-9.87764e-06
4.0839e-08
-9.89426e-06
5.79041e-08
-9.92054e-06
8.80166e-08
-9.93095e-06
9.7218e-08
-9.94761e-06
1.15e-07
-9.96175e-06
1.23504e-07
-9.97324e-06
1.28735e-07
-9.9863e-06
1.36999e-07
-1.00041e-05
1.48063e-07
-1.00251e-05
1.63428e-07
-1.00142e-05
1.70414e-07
-9.89504e-06
1.54084e-07
-9.98234e-06
2.56324e-07
-1.00415e-05
1.86787e-07
-1.00267e-05
1.69346e-07
-9.95541e-06
1.18255e-07
-9.96958e-06
1.33698e-07
-1.00352e-05
1.48777e-07
-1.01537e-05
1.88249e-07
-1.02088e-05
1.99746e-07
-1.0242e-05
2.2042e-07
-1.01782e-05
1.71513e-07
1.00092e-07
-9.88305e-06
-3.40791e-07
-9.9015e-06
-2.52231e-07
-9.92178e-06
-1.84419e-07
-9.93998e-06
-1.34484e-07
-9.95486e-06
-9.81151e-08
-9.96644e-06
-7.16581e-08
-9.97521e-06
-5.23842e-08
-9.98176e-06
-3.83196e-08
-9.98661e-06
-2.80429e-08
-9.99018e-06
-2.05276e-08
-9.9928e-06
-1.50286e-08
-9.99473e-06
-1.10036e-08
-9.99614e-06
-8.05705e-09
-9.99718e-06
-5.89969e-09
-9.99793e-06
-4.32006e-09
-9.99849e-06
-3.16341e-09
-9.9989e-06
-2.31646e-09
-9.99919e-06
-1.6963e-09
-9.99941e-06
-1.24219e-09
-9.99957e-06
-9.09697e-10
-9.99969e-06
-6.66261e-10
-9.99977e-06
-4.88053e-10
-9.99984e-06
-3.57628e-10
-9.99988e-06
-2.62219e-10
-9.99991e-06
-1.92484e-10
-9.99994e-06
-1.41598e-10
-9.99996e-06
-1.04578e-10
-9.99997e-06
-7.77984e-11
-9.99998e-06
-5.8638e-11
-9.99999e-06
-4.52197e-11
-1e-05
-3.62289e-11
-1e-05
-3.07842e-11
-1e-05
-2.83518e-11
-1e-05
-2.86928e-11
-1e-05
-3.184e-11
-1e-05
-3.81008e-11
-1e-05
-4.80874e-11
-1e-05
-6.2777e-11
-1.00001e-05
-8.36078e-11
-1.00001e-05
-1.1262e-10
-1.00001e-05
-1.52658e-10
-1.00001e-05
-2.07644e-10
-1.00002e-05
-2.82973e-10
-1.00003e-05
-3.86038e-10
-1.00004e-05
-5.26961e-10
-1.00005e-05
-7.19602e-10
-1.00006e-05
-9.82938e-10
-1.00009e-05
-1.34296e-09
-1.00012e-05
-1.83531e-09
-1.00016e-05
-2.50892e-09
-1.00022e-05
-3.43104e-09
-1.0003e-05
-4.69442e-09
-1.00041e-05
-6.42729e-09
-1.00056e-05
-8.80789e-09
-1.00077e-05
-1.20861e-08
-1.00104e-05
-1.6617e-08
-1.00142e-05
-2.29202e-08
-1.00193e-05
-3.17957e-08
-1.0026e-05
-4.45939e-08
-1.00344e-05
-6.38881e-08
-1.0042e-05
-9.50681e-08
-1.00399e-05
-1.48644e-07
-1.00109e-05
-2.32731e-07
-9.9487e-06
-3.27032e-07
-9.86111e-06
-4.03383e-07
-9.77368e-06
-4.33529e-07
-9.71891e-06
-4.1361e-07
-9.72769e-06
-3.65533e-07
-9.6738e-06
-4.42541e-07
-9.36464e-06
-5.51319e-07
-9.10336e-06
-3.33461e-07
-9.1559e-06
-4.2454e-08
-9.29003e-06
6.68778e-08
-9.447e-06
8.22462e-08
-9.54978e-06
8.87633e-08
-9.67875e-06
1.13589e-07
-9.73827e-06
8.33079e-08
-9.79921e-06
1.01777e-07
-9.84936e-06
1.08055e-07
-9.8783e-06
1.16958e-07
-9.9026e-06
1.21519e-07
-9.9175e-06
1.29901e-07
-9.92928e-06
1.35279e-07
-9.94402e-06
1.43474e-07
-9.95583e-06
1.48813e-07
-9.96623e-06
1.58461e-07
-9.99163e-06
1.88831e-07
-1.01256e-05
3.04376e-07
-1.02403e-05
2.68829e-07
-9.92922e-06
-5.47993e-08
-9.83468e-06
9.22477e-08
-9.7786e-06
1.13265e-07
-9.81436e-06
1.54018e-07
-9.86846e-06
1.87802e-07
-9.87069e-06
1.51001e-07
-9.8394e-06
1.56965e-07
-9.80941e-06
1.69752e-07
-9.80471e-06
2.1572e-07
-9.85603e-06
2.22837e-07
2.44058e-07
-9.79449e-06
-3.17264e-07
-9.83369e-06
-2.13038e-07
-9.87185e-06
-1.46258e-07
-9.90361e-06
-1.02715e-07
-9.9284e-06
-7.33272e-08
-9.94716e-06
-5.28985e-08
-9.96114e-06
-3.84027e-08
-9.97148e-06
-2.79822e-08
-9.97909e-06
-2.04327e-08
-9.98468e-06
-1.49383e-08
-9.98878e-06
-1.09288e-08
-9.99178e-06
-7.99869e-09
-9.99398e-06
-5.85546e-09
-9.9956e-06
-4.28704e-09
-9.99678e-06
-3.13895e-09
-9.99764e-06
-2.29842e-09
-9.99828e-06
-1.68301e-09
-9.99874e-06
-1.2324e-09
-9.99908e-06
-9.02468e-10
-9.99933e-06
-6.60893e-10
-9.99951e-06
-4.84027e-10
-9.99964e-06
-3.54554e-10
-9.99974e-06
-2.59798e-10
-9.99981e-06
-1.90483e-10
-9.99986e-06
-1.39822e-10
-9.9999e-06
-1.02855e-10
-9.99993e-06
-7.59632e-11
-9.99995e-06
-5.65117e-11
-9.99997e-06
-4.25956e-11
-9.99998e-06
-3.28512e-11
-9.99999e-06
-2.63233e-11
-1e-05
-2.23716e-11
-1e-05
-2.06083e-11
-1e-05
-2.08599e-11
-1e-05
-2.31501e-11
-1e-05
-2.77021e-11
-1e-05
-3.49605e-11
-1.00001e-05
-4.56356e-11
-1.00001e-05
-6.07729e-11
-1.00001e-05
-8.18556e-11
-1.00002e-05
-1.1095e-10
-1.00002e-05
-1.50911e-10
-1.00003e-05
-2.05658e-10
-1.00004e-05
-2.8057e-10
-1.00005e-05
-3.83015e-10
-1.00007e-05
-5.23084e-10
-1.0001e-05
-7.14604e-10
-1.00014e-05
-9.76528e-10
-1.00019e-05
-1.33487e-09
-1.00026e-05
-1.82536e-09
-1.00035e-05
-2.4972e-09
-1.00048e-05
-3.41817e-09
-1.00065e-05
-4.68183e-09
-1.00089e-05
-6.41741e-09
-1.00122e-05
-8.80307e-09
-1.00167e-05
-1.20833e-08
-1.00231e-05
-1.65908e-08
-1.00321e-05
-2.27796e-08
-1.00453e-05
-3.13239e-08
-1.00656e-05
-4.36506e-08
-1.00956e-05
-6.50345e-08
-1.0124e-05
-1.20288e-07
-1.01052e-05
-2.51471e-07
-1.0025e-05
-4.07243e-07
-9.89102e-06
-5.37374e-07
-9.75245e-06
-5.72101e-07
-9.61013e-06
-5.55933e-07
-9.45829e-06
-5.17372e-07
-9.53051e-06
-3.70317e-07
-9.87129e-06
-2.10534e-07
-1.01028e-05
-1.01968e-07
-1.00508e-05
-9.4453e-08
-9.96807e-06
-1.58381e-08
-9.94412e-06
5.82986e-08
-9.92927e-06
7.39119e-08
-9.91501e-06
9.93294e-08
-9.93281e-06
1.01104e-07
-9.94097e-06
1.09936e-07
-9.94802e-06
1.15113e-07
-9.95148e-06
1.20412e-07
-9.95808e-06
1.28125e-07
-9.96315e-06
1.3497e-07
-9.97132e-06
1.43452e-07
-9.97785e-06
1.49997e-07
-9.98092e-06
1.51885e-07
-9.96858e-06
1.46121e-07
-9.89653e-06
1.1678e-07
-9.58949e-06
-2.66153e-09
-9.34611e-06
2.54509e-08
-9.8922e-06
4.91295e-07
-1.01067e-05
3.06759e-07
-1.02326e-05
2.39189e-07
-1.03101e-05
2.31441e-07
-1.02653e-05
1.43034e-07
-1.0287e-05
1.72743e-07
-1.02723e-05
1.42203e-07
-1.02158e-05
1.13236e-07
-1.01652e-05
1.65157e-07
-1.00791e-05
1.36718e-07
1.64978e-07
-9.69027e-06
-2.47692e-07
-9.76691e-06
-1.36398e-07
-9.8283e-06
-8.48612e-08
-9.87423e-06
-5.67891e-08
-9.90797e-06
-3.95806e-08
-9.93267e-06
-2.82062e-08
-9.95072e-06
-2.03456e-08
-9.96393e-06
-1.47738e-08
-9.9736e-06
-1.07676e-08
-9.98067e-06
-7.86389e-09
-9.98585e-06
-5.74986e-09
-9.98964e-06
-4.20686e-09
-9.99242e-06
-3.07905e-09
-9.99445e-06
-2.25405e-09
-9.99594e-06
-1.65029e-09
-9.99703e-06
-1.20832e-09
-9.99782e-06
-8.84752e-10
-9.99841e-06
-6.47844e-10
-9.99884e-06
-4.74384e-10
-9.99915e-06
-3.47382e-10
-9.99938e-06
-2.54402e-10
-9.99955e-06
-1.86339e-10
-9.99967e-06
-1.36528e-10
-9.99976e-06
-1.00093e-10
-9.99983e-06
-7.34664e-11
-9.99988e-06
-5.40391e-11
-9.99991e-06
-3.99085e-11
-9.99994e-06
-2.96898e-11
-9.99996e-06
-2.23812e-11
-9.99997e-06
-1.72656e-11
-9.99999e-06
-1.38408e-11
-1e-05
-1.17701e-11
-1e-05
-1.08496e-11
-1e-05
-1.0988e-11
-1e-05
-1.21975e-11
-1e-05
-1.45952e-11
-1.00001e-05
-1.8415e-11
-1.00001e-05
-2.40305e-11
-1.00001e-05
-3.19916e-11
-1.00001e-05
-4.30781e-11
-1.00002e-05
-5.83768e-11
-1.00003e-05
-7.93881e-11
-1.00004e-05
-1.08175e-10
-1.00005e-05
-1.47568e-10
-1.00007e-05
-2.01444e-10
-1.00009e-05
-2.75115e-10
-1.00013e-05
-3.75864e-10
-1.00017e-05
-5.13676e-10
-1.00024e-05
-7.02263e-10
-1.00032e-05
-9.60469e-10
-1.00044e-05
-1.31422e-09
-1.0006e-05
-1.79921e-09
-1.00083e-05
-2.46447e-09
-1.00113e-05
-3.37684e-09
-1.00155e-05
-4.62553e-09
-1.00212e-05
-6.32224e-09
-1.00292e-05
-8.5802e-09
-1.00406e-05
-1.14079e-08
-1.00577e-05
-1.42717e-08
-1.0087e-05
-1.43558e-08
-1.01509e-05
-1.13213e-09
-1.02551e-05
-1.60776e-08
-1.02456e-05
-2.6098e-07
-1.00587e-05
-5.94081e-07
-9.74963e-06
-8.46463e-07
-9.4693e-06
-8.52434e-07
-9.34248e-06
-6.8275e-07
-9.27842e-06
-5.81438e-07
-9.29542e-06
-3.53311e-07
-9.41174e-06
-9.42173e-08
-9.57013e-06
5.64249e-08
-9.81633e-06
1.51753e-07
-1.00046e-05
1.72421e-07
-1.00898e-05
1.43516e-07
-1.01371e-05
1.21217e-07
-1.01251e-05
8.73046e-08
-1.01073e-05
8.33255e-08
-1.01058e-05
1.08408e-07
-1.0109e-05
1.18371e-07
-1.01052e-05
1.16546e-07
-1.01021e-05
1.25073e-07
-1.01049e-05
1.37755e-07
-1.01025e-05
1.41029e-07
-1.00975e-05
1.44965e-07
-1.00912e-05
1.45654e-07
-1.00865e-05
1.41413e-07
-1.01014e-05
1.31693e-07
-1.02326e-05
1.28483e-07
-1.04203e-05
2.13166e-07
-1.00535e-05
1.24553e-07
-9.84951e-06
1.02723e-07
-9.79343e-06
1.83111e-07
-9.70986e-06
1.47873e-07
-9.71921e-06
1.52383e-07
-9.74329e-06
1.96821e-07
-9.75104e-06
1.49948e-07
-9.7774e-06
1.39598e-07
-9.80274e-06
1.905e-07
-9.91483e-06
2.48806e-07
2.50149e-07
-9.57897e-06
-9.71537e-06
-9.80023e-06
-9.85702e-06
-9.8966e-06
-9.92481e-06
-9.94515e-06
-9.95992e-06
-9.97069e-06
-9.97856e-06
-9.98431e-06
-9.98851e-06
-9.99159e-06
-9.99385e-06
-9.9955e-06
-9.9967e-06
-9.99759e-06
-9.99824e-06
-9.99871e-06
-9.99906e-06
-9.99931e-06
-9.9995e-06
-9.99963e-06
-9.99973e-06
-9.99981e-06
-9.99986e-06
-9.9999e-06
-9.99993e-06
-9.99995e-06
-9.99997e-06
-9.99998e-06
-1e-05
-1e-05
-1e-05
-1e-05
-1e-05
-1.00001e-05
-1.00001e-05
-1.00001e-05
-1.00002e-05
-1.00002e-05
-1.00003e-05
-1.00004e-05
-1.00006e-05
-1.00008e-05
-1.0001e-05
-1.00014e-05
-1.00019e-05
-1.00026e-05
-1.00036e-05
-1.00049e-05
-1.00067e-05
-1.00092e-05
-1.00125e-05
-1.00172e-05
-1.00235e-05
-1.00321e-05
-1.00435e-05
-1.00577e-05
-1.00721e-05
-1.00732e-05
-1.00893e-05
-1.03503e-05
-1.09444e-05
-1.17908e-05
-1.26433e-05
-1.3326e-05
-1.39075e-05
-1.42608e-05
-1.4355e-05
-1.42986e-05
-1.41468e-05
-1.39744e-05
-1.38309e-05
-1.37097e-05
-1.36223e-05
-1.3539e-05
-1.34306e-05
-1.33122e-05
-1.31957e-05
-1.30706e-05
-1.29329e-05
-1.27918e-05
-1.26469e-05
-1.25012e-05
-1.23598e-05
-1.22281e-05
-1.20996e-05
-1.18865e-05
-1.17619e-05
-1.16592e-05
-1.14761e-05
-1.13282e-05
-1.11758e-05
-1.0979e-05
-1.08291e-05
-1.06895e-05
-1.0499e-05
-1.02501e-05
)
;

boundaryField
{
    inlet
    {
        type            calculated;
        value           nonuniform List<scalar> 10(-1e-05 -1e-05 -1e-05 -1e-05 -1e-05 -1e-05 -1e-05 -1e-05 -1e-05 -1e-05);
    }
    outlet
    {
        type            calculated;
        value           nonuniform List<scalar> 10(1.06687e-05 1.03793e-05 1.02291e-05 1.01258e-05 1.00404e-05 9.95966e-06 9.87418e-06 9.77097e-06 9.62069e-06 9.33128e-06);
    }
    walls
    {
        type            calculated;
        value           uniform 0;
    }
}


// ************************************************************************* //
