/*--------------------------------*- C++ -*----------------------------------*\
| =========                 |                                                 |
| \\      /  F ield         | foam-extend: Open Source CFD                    |
|  \\    /   O peration     | Version:     5.0                                |
|   \\  /    A nd           | Web:         http://www.foam-extend.org         |
|    \\/     M anipulation  |                                                 |
\*---------------------------------------------------------------------------*/
FoamFile
{
    version     2.0;
    format      ascii;
    class       surfaceScalarField;
    location    "2000";
    object      phi.gas;
}
// * * * * * * * * * * * * * * * * * * * * * * * * * * * * * * * * * * * * * //

dimensions      [0 3 -1 0 0 0 0];

internalField   nonuniform List<scalar> 
1890
(
0
0
0
0
0
0
0
0
0
0
0
0
0
0
0
0
0
0
0
0
0
0
0
0
0
0
0
0
0
0
0
0
0
0
0
0
0
0
0
0
0
0
0
0
0
0
0
0
0
0
0
0
0
0
0
0
0
0
0
0
0
0
0
0
0
0
0
0
0
0
0
0
0
0
0
0
0
0
0
0
0
0
0
0
0
0
0
0
0
0
0
0
0
0
0
0
0
0
0
0
0
0
0
0
0
0
0
0
0
0
0
0
0
0
0
0
0
0
0
0
0
0
0
0
0
0
0
0
2.63822e-56
0
5.51968e-24
-4.68121e-21
-2.67037e-12
-2.21039e-12
-9.75024e-10
-1.23721e-09
-1.42336e-08
-1.61239e-08
-6.15298e-08
-5.58092e-08
-9.49564e-07
-8.20513e-08
-6.49607e-06
-1.48406e-06
-2.25063e-05
-1.83306e-06
-5.99826e-05
-4.73512e-07
-8.17842e-05
2.51006e-07
-9.13434e-05
1.51104e-06
-9.63327e-05
2.5153e-06
-0.000104853
2.52587e-06
-9.77012e-05
3.17861e-06
-9.2873e-05
2.4576e-06
-9.92705e-05
3.40691e-06
-0.000100963
3.31828e-06
-0.000111558
2.89464e-06
-0.000120203
4.0648e-06
-0.00010606
4.02961e-06
-0.00011085
2.92779e-06
-0.000106467
3.63939e-06
-9.76797e-05
2.84077e-06
-0.000107277
4.19757e-06
-0.000133806
5.32966e-06
-0.000149103
4.4507e-06
-0.000123209
3.86956e-06
-0.000126391
5.21092e-06
-0.000143115
6.0737e-06
-0.000134328
5.52628e-06
-0.000120687
5.26881e-06
-0.00011415
6.49778e-06
-0.000132178
7.43183e-06
-0.000147881
8.661e-06
7.21117e-06
0
0
0
0
0
0
0
0
0
0
0
0
0
0
0
0
0
0
0
0
0
0
0
0
0
0
0
0
0
0
0
0
0
0
0
0
0
0
0
0
0
0
0
0
0
0
0
0
0
0
0
0
0
0
0
0
0
0
0
0
0
0
0
0
0
0
0
0
0
0
0
0
0
0
0
0
0
0
0
0
0
0
0
0
0
0
0
0
0
0
0
0
0
0
0
0
0
0
0
0
0
0
0
0
0
0
0
0
0
0
0
0
0
0
0
0
0
0
0
0
0
0
0
0
0
0
0
0
9.23161e-17
0
-5.42855e-09
-2.72807e-18
-2.43114e-06
1.51268e-10
-2.98241e-05
5.86551e-08
-8.66069e-05
8.31068e-07
-0.000108297
3.6705e-06
-0.00011505
2.78071e-06
-0.000108987
3.15495e-07
-0.000115049
-4.88904e-07
-0.00013448
-8.79016e-07
-0.000154112
2.15603e-07
-0.000163858
1.6781e-06
-0.000140289
2.81695e-06
-0.000133825
3.90461e-06
-0.000120907
3.99803e-06
-0.000125089
3.46255e-06
-0.000147486
4.13222e-06
-0.000120063
4.11219e-06
-0.000127043
4.29779e-06
-0.000159617
4.55289e-06
-0.00012834
4.94933e-06
-0.000120029
4.18333e-06
-0.00014
4.10606e-06
-0.000155702
3.68961e-06
-0.000151061
6.65704e-06
-0.00013333
6.42968e-06
-0.000131181
8.3538e-06
-0.000149414
7.5095e-06
-0.000185057
6.68939e-06
-0.000174573
6.57053e-06
-0.00014859
6.71021e-06
-0.000149
6.63556e-06
-0.000160556
6.13159e-06
-0.00016403
8.52271e-06
-0.000146345
6.93131e-06
5.64384e-06
0
0
0
0
0
0
0
0
0
0
0
0
0
0
0
0
0
0
0
0
0
0
0
0
0
0
0
0
0
0
0
0
0
0
0
0
0
0
0
0
0
0
0
0
0
0
0
0
0
0
0
0
0
0
0
0
0
0
0
0
0
0
0
0
0
0
0
0
0
0
0
0
0
0
0
0
0
0
0
0
0
0
0
0
0
0
0
0
0
0
0
0
0
0
0
0
0
0
0
0
0
0
0
0
0
0
0
0
0
0
0
0
0
0
0
0
0
0
0
0
0
0
0
0
0
0
0
0
0
0
6.59051e-20
0
-2.45398e-10
-7.93769e-19
-1.92159e-07
-7.29435e-12
-6.68897e-06
-9.95742e-10
-4.10391e-05
-5.50554e-09
-9.92411e-05
-2.37668e-07
-0.000130929
1.13082e-07
-0.000114796
4.27777e-07
-0.000114907
1.51611e-06
-0.000117971
1.61111e-06
-0.000117552
2.61854e-06
-0.000143848
2.73666e-06
-0.000151039
4.54727e-06
-0.000126711
4.29923e-06
-0.000116076
4.28205e-06
-0.000111534
4.60704e-06
-0.000127658
4.1942e-06
-0.00012766
4.82122e-06
-0.000119335
4.36195e-06
-0.000134388
4.78498e-06
-0.000131273
4.45241e-06
-0.00011716
4.07314e-06
-0.000121344
3.25102e-06
-0.000128776
5.39557e-06
-0.000156475
8.51307e-06
-0.000195412
1.09834e-05
-0.000169299
9.08063e-06
-0.000159825
4.91906e-06
-0.000163754
4.8449e-06
-0.000158597
5.86453e-06
-0.000130643
5.37049e-06
-0.00013408
7.09011e-06
-0.00013806
7.49406e-06
-0.00011445
7.95958e-06
7.22216e-06
0
0
0
0
0
0
0
0
0
0
0
0
0
0
0
0
0
0
0
0
0
0
0
0
0
0
0
0
0
0
0
0
0
0
0
0
0
0
0
0
0
0
0
0
0
0
0
0
0
0
0
0
0
0
0
0
0
0
0
0
0
0
0
0
0
0
0
0
0
0
0
0
0
0
0
0
0
0
0
0
0
0
0
0
0
0
0
0
0
0
0
0
0
0
0
0
0
0
0
0
0
0
0
0
0
0
0
0
0
0
0
0
0
0
0
0
0
0
0
0
0
0
0
0
0
0
0
0
0
0
-2.73451e-16
-9.82538e-22
-1.78479e-08
-1.99958e-12
-2.49316e-06
-7.52849e-10
-3.33484e-05
-1.62586e-08
-0.000114345
-4.21263e-07
-0.000138641
-6.44232e-07
-0.000138976
3.31017e-07
-0.000153831
1.17644e-06
-0.00013285
2.36451e-06
-0.000130579
3.07991e-06
-0.000126441
3.41338e-06
-0.000132319
3.97447e-06
-0.000153972
3.85822e-06
-0.000146037
5.13817e-06
-0.00015468
5.13643e-06
-0.000146142
5.03199e-06
-0.000125962
4.48451e-06
-0.000126014
4.39243e-06
-0.000132172
5.4243e-06
-0.000123202
5.7461e-06
-0.000117932
4.72989e-06
-0.000118171
5.17081e-06
-0.000116943
3.73209e-06
-0.000130208
4.83275e-06
-0.000163529
1.04309e-05
-0.000201381
8.90056e-06
-0.00015515
5.96209e-06
-0.000129285
5.04488e-06
-0.00014463
5.63087e-06
-0.000139636
5.23348e-06
-0.000147559
5.75861e-06
-0.000157178
5.72897e-06
-0.000142983
6.06034e-06
-0.000122424
8.80024e-06
1.11068e-05
0
0
0
0
0
0
0
0
0
0
0
0
0
0
0
0
0
0
0
0
0
0
0
0
0
0
0
0
0
0
0
0
0
0
0
0
0
0
0
0
0
0
0
0
0
0
0
0
0
0
0
0
0
0
0
0
0
0
0
0
0
0
0
0
0
0
0
0
0
0
0
0
0
0
0
0
0
0
0
0
0
0
0
0
0
0
0
0
0
0
0
0
0
0
0
0
0
0
0
0
0
0
0
0
0
0
0
0
0
0
0
0
0
0
0
0
0
0
0
0
0
0
0
0
0
0
0
-5.09369e-212
2.57062e-17
-6.4749e-103
-5.0197e-09
-3.04378e-19
-1.50335e-06
4.71283e-11
-3.92099e-05
8.44768e-09
-8.32027e-05
4.31342e-07
-0.00010407
1.55358e-06
-0.000120166
1.52508e-06
-0.000124207
1.71857e-06
-0.000129983
1.66921e-06
-0.000147965
2.84787e-06
-0.000143084
3.20692e-06
-0.000152501
3.38945e-06
-0.000143097
4.73571e-06
-0.000144254
3.42854e-06
-0.000175757
5.19285e-06
-0.000147149
4.52894e-06
-0.000126817
5.2571e-06
-0.000121179
4.25167e-06
-0.00013984
4.28151e-06
-0.000175931
5.2646e-06
-0.000165456
5.96861e-06
-0.000165809
5.90003e-06
-0.000148611
6.08531e-06
-0.000146937
5.58981e-06
-0.00018527
7.63639e-06
-0.00016286
6.56865e-06
-0.000135113
5.35108e-06
-0.0001313
5.96247e-06
-0.000142981
6.42642e-06
-0.000144688
5.6276e-06
-0.000144519
4.75817e-06
-0.000135469
4.95974e-06
-0.000122917
6.26007e-06
-0.000134306
7.09278e-06
-0.000151589
9.78127e-06
1.12635e-05
0
0
0
0
0
0
0
0
0
0
0
0
0
0
0
0
0
0
0
0
0
0
0
0
0
0
0
0
0
0
0
0
0
0
0
0
0
0
0
0
0
0
0
0
0
0
0
0
0
0
0
0
0
0
0
0
0
0
0
0
0
0
0
0
0
0
0
0
0
0
0
0
0
0
0
0
0
0
0
0
0
0
0
0
0
0
0
0
0
0
0
0
0
0
0
0
0
0
0
0
0
0
0
0
0
0
0
0
0
0
0
0
0
0
0
0
0
0
0
0
0
-1.36767e-307
4.99718e-237
-5.29253e-153
2.99993e-153
-2.41417e-106
4.24464e-74
-8.75099e-60
7.94625e-38
-7.82067e-30
-1.03416e-12
-6.54296e-23
-3.48752e-08
3.44951e-15
-5.55247e-06
6.47062e-11
-4.53484e-05
2.06344e-09
-7.95003e-05
6.38666e-07
-0.000123699
2.26997e-06
-0.000127626
3.10512e-06
-0.000148044
3.14586e-06
-0.000153092
3.45776e-06
-0.000144438
4.19005e-06
-0.000157863
3.46423e-06
-0.000141243
5.12084e-06
-0.000139336
3.80198e-06
-0.000135417
4.50055e-06
-0.000143609
4.76315e-06
-0.000139499
5.44045e-06
-0.000113754
4.99656e-06
-0.00011625
5.37495e-06
-0.000127118
4.62229e-06
-0.000143957
5.04679e-06
-0.000140482
5.31088e-06
-0.000130683
5.14541e-06
-0.000128326
5.47651e-06
-0.000139146
5.04449e-06
-0.000165365
6.8469e-06
-0.00017121
7.4131e-06
-0.000167835
6.66907e-06
-0.000153457
5.37963e-06
-0.0001325
5.48983e-06
-0.000120831
5.54545e-06
-0.000128933
6.2683e-06
-0.000140254
7.49284e-06
-0.000150939
7.85123e-06
-0.000161204
8.16138e-06
7.16775e-06
0
0
0
0
0
0
0
0
0
0
0
0
0
0
0
0
0
0
0
0
0
0
0
0
0
0
0
0
0
0
0
0
0
0
0
0
0
0
0
0
0
0
0
0
0
0
0
0
0
0
0
0
0
0
0
0
0
0
0
0
0
0
0
0
0
0
0
0
0
0
0
0
0
0
0
0
0
0
0
0
0
0
0
0
0
0
0
0
0
0
0
0
0
0
0
0
0
0
0
0
0
0
0
0
0
0
0
0
0
0
0
0
0
0
0
0
0
0
6.23312e-220
-1.88941e-207
4.99555e-109
-1.14046e-88
2.27377e-75
-5.51086e-45
9.05189e-46
-5.52168e-32
2.94456e-22
-9.96957e-16
2.26483e-17
-7.75941e-12
2.6081e-15
-1.43923e-10
-8.86847e-11
-3.14865e-10
-1.51735e-07
-3.70177e-09
-7.0448e-06
-3.44133e-07
-4.60733e-05
-2.49283e-06
-9.13707e-05
-4.05935e-07
-0.000122247
1.43858e-06
-0.000130992
3.91563e-06
-0.000150258
3.98676e-06
-0.000133718
5.47219e-06
-0.000140889
4.84076e-06
-0.000142864
4.81645e-06
-0.000122376
4.39055e-06
-0.000138937
4.40134e-06
-0.000142428
6.36684e-06
-0.000143075
4.69518e-06
-0.000169902
6.40697e-06
-0.000143125
5.49697e-06
-0.000118458
5.21562e-06
-0.000115988
5.69821e-06
-0.000113615
4.84046e-06
-0.000118788
5.81435e-06
-0.000123427
7.67872e-06
-0.00012712
7.08515e-06
-0.000151555
2.30642e-06
-0.000182399
6.18273e-06
-0.00014804
5.24972e-06
-0.000132092
5.26705e-06
-0.00013134
7.06249e-06
-0.000133259
5.54827e-06
-0.000138226
6.63931e-06
-0.000136615
7.53058e-06
-0.000131437
8.82904e-06
-0.000122656
9.05156e-06
8.72007e-06
0
0
0
0
0
0
0
0
0
0
0
0
0
0
0
0
0
0
0
0
0
0
0
0
0
0
0
0
0
0
0
0
0
0
0
0
0
0
0
0
0
0
0
0
0
0
0
0
0
0
0
0
0
0
0
0
0
0
0
0
0
0
0
0
0
0
0
0
0
0
0
0
0
0
0
0
0
0
0
0
0
0
0
0
0
0
0
0
0
0
0
0
0
0
0
0
0
0
0
0
0
0
0
0
0
0
0
0
0
0
0
0
0
0
0
0
1.08062e-152
0
2.59348e-65
-9.09754e-56
3.92584e-33
-2.29269e-24
4.37096e-24
-1.51313e-14
-3.80809e-12
-1.52808e-12
-4.87966e-09
-3.22357e-09
-2.62875e-08
-2.05435e-07
-1.05066e-07
-3.83936e-07
-7.10795e-06
-8.01897e-07
-3.96303e-05
-4.31608e-07
-8.56951e-05
-2.12456e-08
-0.000112158
9.35495e-07
-0.000145922
2.63716e-06
-0.000174044
2.927e-06
-0.000145765
3.76809e-06
-0.000142282
4.17328e-06
-0.000158372
4.84063e-06
-0.000134804
5.98524e-06
-0.000121223
4.71464e-06
-0.000121352
4.84258e-06
-0.000144123
4.57781e-06
-0.000143533
6.58236e-06
-0.000140322
4.84705e-06
-0.000136591
5.57459e-06
-0.000127231
4.51473e-06
-0.000156278
5.80289e-06
-0.00014024
5.68144e-06
-0.000133146
5.09815e-06
-0.000150568
5.35359e-06
-0.000152675
3.55756e-06
-0.000166975
4.88396e-06
-0.000199597
1.06588e-05
-0.000172346
1.08163e-05
-0.000140352
6.68538e-06
-0.000158391
7.00284e-06
-0.000151513
6.09295e-06
-0.000137439
5.63215e-06
-0.000153997
5.99894e-06
-0.000166132
5.8861e-06
-0.000169587
8.40514e-06
-0.000150668
7.21029e-06
7.84836e-06
0
0
0
0
0
0
0
0
0
0
0
0
0
0
0
0
0
0
0
0
0
0
0
0
0
0
0
0
0
0
0
0
0
0
0
0
0
0
0
0
0
0
0
0
0
0
0
0
0
0
0
0
0
0
0
0
0
0
0
0
0
0
0
0
0
0
0
0
0
0
0
0
0
0
0
0
0
0
0
0
0
0
0
0
0
0
0
0
0
0
0
0
0
0
0
0
0
0
0
0
0
0
0
0
0
0
0
0
0
0
0
0
0
0
0
0
7.64222e-43
-3.90843e-45
2.53936e-19
-2.51974e-15
-4.94548e-11
-4.52263e-11
-4.81224e-09
-6.54618e-09
-1.61227e-06
-2.90738e-08
-1.13139e-05
-5.66382e-06
-1.3984e-05
-1.16223e-05
-2.35824e-05
-1.46081e-05
-1.94948e-05
-1.3917e-05
-3.43549e-05
-9.44066e-06
-5.96076e-05
-3.10728e-06
-0.000113689
2.18673e-07
-0.00011575
1.98132e-06
-0.000117715
2.92309e-06
-0.000130544
4.19489e-06
-0.000138247
4.06205e-06
-0.000159955
4.11655e-06
-0.000168065
3.88175e-06
-0.000150474
3.21659e-06
-0.000139316
4.08233e-06
-0.000150968
4.06427e-06
-0.000154531
4.30904e-06
-0.000132514
3.74787e-06
-0.000120951
4.43666e-06
-0.000129244
3.61373e-06
-0.000132087
4.39774e-06
-0.000128802
4.31099e-06
-0.000138289
4.59643e-06
-0.000135016
4.27582e-06
-0.000155956
4.54873e-06
-0.000153203
5.66058e-06
-0.000152117
3.69639e-06
-0.000173292
5.11758e-06
-0.000157291
6.34425e-06
-0.000144033
5.46481e-06
-0.000125268
4.83448e-06
-0.000124161
6.25591e-06
-0.000119766
5.17725e-06
-0.000130373
5.01332e-06
-0.000131236
8.34667e-06
-0.000120613
8.25942e-06
8.52069e-06
0
0
0
0
0
0
0
0
0
0
0
0
0
0
0
0
0
0
0
0
0
0
0
0
0
0
0
0
0
0
0
0
0
0
0
0
0
0
0
0
0
0
0
0
0
0
0
0
0
0
0
0
0
0
0
0
0
8.27061e-36
-9.9885e-12
-1.24386e-07
-1.32168e-05
-5.53903e-05
-0.000149135
-0.000160668
-0.000179136
-0.000220225
-0.00023773
-0.000240831
-0.0002369
-0.000246254
-0.000252016
-0.000250287
-0.000238272
-0.0002222
-0.000207178
-0.000172714
-0.000179748
-0.00020672
-0.000193808
-0.00016966
-0.000180526
-0.000174296
-0.000157042
-0.000174715
-0.000181969
-0.000171097
-0.000173581
-0.00016434
-0.000150247
-0.000176178
-0.00022751
-0.000207226
-0.000166099
-0.000171041
-0.000161866
-0.00013366
-0.000149559
-0.000170704
-0.000144364
)
;

boundaryField
{
    inlet
    {
        type            fixedValue;
        value           nonuniform List<scalar> 10(-5e-05 -5e-05 -5e-05 -5e-05 -5e-05 -5e-05 -5e-05 -5e-05 -5e-05 -5e-05);
    }
    outlet
    {
        type            calculated;
        value           uniform 0;
    }
    walls
    {
        type            fixedValue;
        value           uniform 0;
    }
}


// ************************************************************************* //
