/*--------------------------------*- C++ -*----------------------------------*\
| =========                 |                                                 |
| \\      /  F ield         | foam-extend: Open Source CFD                    |
|  \\    /   O peration     | Version:     5.0                                |
|   \\  /    A nd           | Web:         http://www.foam-extend.org         |
|    \\/     M anipulation  |                                                 |
\*---------------------------------------------------------------------------*/
FoamFile
{
    version     2.0;
    format      ascii;
    class       surfaceScalarField;
    location    "2000";
    object      phi.oil;
}
// * * * * * * * * * * * * * * * * * * * * * * * * * * * * * * * * * * * * * //

dimensions      [0 3 -1 0 0 0 0];

internalField   nonuniform List<scalar> 
1890
(
-4.73684e-05
-1.30364e-06
-5.27418e-05
-6.1999e-07
-5.66655e-05
-4.84922e-07
-5.635e-05
-2.98891e-07
-6.12329e-05
-1.93077e-07
-6.50014e-05
-1.41032e-07
-5.74564e-05
-1.31263e-07
-5.7372e-05
-6.71546e-08
-6.47053e-05
-6.15302e-08
-5.01073e-05
-4.49378e-08
-4.35466e-05
-2.80492e-08
-4.35283e-05
-2.05224e-08
-4.17018e-05
-1.36857e-08
-4.25795e-05
-1.09966e-08
-5.26554e-05
-8.25265e-09
-6.25207e-05
-6.36085e-09
-4.87923e-05
-5.53115e-09
-4.54626e-05
-2.94576e-09
-4.65177e-05
-2.43382e-09
-4.25573e-05
-1.5448e-09
-4.65149e-05
-1.2123e-09
-5.40568e-05
-9.32507e-10
-5.1284e-05
-7.8098e-10
-5.12835e-05
-5.0108e-10
-5.7144e-05
-3.97661e-10
-5.55564e-05
-2.92528e-10
-4.8781e-05
-1.99823e-10
-4.54549e-05
-1.48617e-10
-5.40544e-05
-1.04152e-10
-6.66669e-05
-1.15039e-10
-5.40542e-05
-7.26891e-11
-4.87806e-05
-6.16911e-11
-5.26316e-05
-5.82876e-11
-5.55555e-05
-5.89487e-11
-5.1282e-05
-6.7226e-11
-4.34781e-05
-6.29828e-11
-4.2553e-05
-8.50934e-11
-5.12817e-05
-1.01704e-10
-5.5555e-05
-1.67633e-10
-4.54539e-05
-2.20112e-10
-4.54536e-05
-2.42486e-10
-4.54532e-05
-3.95831e-10
-4.87786e-05
-4.69026e-10
-4.99973e-05
-7.54479e-10
-4.44411e-05
-1.00364e-09
-5.40486e-05
-1.30425e-09
-5.71349e-05
-2.41098e-09
-4.761e-05
-2.91302e-09
-5.12687e-05
-3.75768e-09
-5.26129e-05
-5.26397e-09
-4.87569e-05
-6.29536e-09
-4.75877e-05
-8.36205e-09
-4.75763e-05
-1.28977e-08
-5.39881e-05
-1.47082e-08
-5.25443e-05
-2.24408e-08
-5.54307e-05
-2.67938e-08
-5.69693e-05
-4.51237e-08
-5.38331e-05
-5.52492e-08
-6.02747e-05
-6.73527e-08
-6.20463e-05
-8.95153e-08
-5.82625e-05
-1.26572e-07
-4.70301e-05
-1.66564e-07
-4.57773e-05
-1.66844e-07
-5.29846e-05
-2.10328e-07
-4.75967e-05
-2.29876e-07
-4.73678e-05
-2.4695e-07
-4.95973e-05
-1.89918e-07
-4.95703e-05
-2.84092e-08
-5.35728e-05
-1.33091e-07
-5.41703e-05
-9.551e-07
-4.82795e-05
-1.74822e-06
-4.75983e-05
-1.82178e-06
-4.82689e-05
-1.95063e-06
-4.20801e-05
-1.66817e-06
-3.9341e-05
-8.69823e-07
-3.83596e-05
-3.77208e-07
-3.82553e-05
-2.90302e-07
-3.96856e-05
-2.66521e-07
-3.60274e-05
-3.29033e-07
-3.29164e-05
-2.41432e-07
-3.44042e-05
-3.06276e-07
-3.42092e-05
-2.87962e-07
-3.69666e-05
-2.45811e-07
-3.90502e-05
-3.30458e-07
-3.37726e-05
-3.35727e-07
-3.45114e-05
-2.74975e-07
-3.25425e-05
-4.36692e-07
-2.90432e-05
-5.22745e-07
-2.80484e-05
-2.08486e-07
-2.52009e-05
4.46519e-07
-2.57343e-05
-8.79628e-09
-1.76697e-05
4.41382e-08
-1.47527e-05
1.97883e-07
-1.47512e-05
8.83643e-08
-1.1987e-05
-3.95334e-09
-8.57829e-06
2.33201e-08
-6.10997e-06
7.73629e-08
-4.37754e-06
7.36962e-08
-3.30482e-06
-6.42784e-08
-7.14663e-08
-5.42619e-05
-1.71494e-06
-5.11656e-05
-9.90873e-07
-5.49823e-05
-8.86413e-07
-4.70967e-05
-5.70638e-07
-4.20502e-05
-3.0553e-07
-5.03368e-05
-2.35105e-07
-5.02465e-05
-2.07582e-07
-4.56186e-05
-1.27192e-07
-5.14176e-05
-1.02164e-07
-5.56631e-05
-8.2991e-08
-5.56343e-05
-5.6046e-08
-5.00519e-05
-3.72039e-08
-5.26716e-05
-3.08189e-08
-5.88563e-05
-2.38176e-08
-5.00204e-05
-1.90248e-08
-5.26473e-05
-1.12125e-08
-5.71554e-05
-9.90085e-09
-5.12903e-05
-6.48702e-09
-4.87862e-05
-4.75048e-09
-5.00043e-05
-3.07446e-09
-5.12853e-05
-2.68963e-09
-5.2634e-05
-1.73e-09
-5.55575e-05
-1.36781e-09
-5.26329e-05
-9.5278e-10
-5.1283e-05
-6.50617e-10
-4.87812e-05
-4.7862e-10
-5.12826e-05
-3.99989e-10
-5.12824e-05
-3.05586e-10
-5.55559e-05
-2.36691e-10
-5.26318e-05
-2.05297e-10
-5.12822e-05
-1.11947e-10
-5.88236e-05
-1.20782e-10
-5.55556e-05
-1.05492e-10
-5.4054e-05
-1.06733e-10
-4.65116e-05
-1.09971e-10
-4.65115e-05
-1.38186e-10
-4.65114e-05
-1.88577e-10
-4.3478e-05
-2.02451e-10
-4.878e-05
-2.63802e-10
-4.6511e-05
-4.41808e-10
-4.54537e-05
-5.68151e-10
-4.76178e-05
-7.17513e-10
-4.54529e-05
-1.10969e-09
-5.12796e-05
-1.21722e-09
-5.40504e-05
-1.95874e-09
-5.55505e-05
-2.81724e-09
-6.4508e-05
-4.18336e-09
-6.66552e-05
-5.39035e-09
-5.88098e-05
-7.35221e-09
-5.12656e-05
-9.75315e-09
-4.75983e-05
-1.32899e-08
-5.40218e-05
-1.76182e-08
-5.12404e-05
-2.67789e-08
-4.34301e-05
-2.74716e-08
-4.43775e-05
-3.72145e-08
-4.64164e-05
-5.02482e-08
-5.24854e-05
-8.44137e-08
-4.74402e-05
-1.22941e-07
-4.14559e-05
-1.37583e-07
-4.51468e-05
-1.5919e-07
-5.50565e-05
-2.49515e-07
-5.98921e-05
-3.63081e-07
-5.47104e-05
-3.91622e-07
-4.90351e-05
-4.49e-07
-5.4219e-05
-4.29862e-07
-5.10651e-05
-5.47298e-07
-4.93491e-05
-5.95315e-07
-5.75654e-05
-9.22753e-07
-5.39373e-05
-8.33193e-07
-4.69748e-05
-3.51977e-07
-3.95452e-05
-8.34398e-07
-3.39916e-05
-1.74434e-06
-3.31332e-05
-1.99181e-06
-3.82986e-05
-1.87801e-06
-4.29866e-05
-1.68113e-06
-4.44993e-05
-1.22307e-06
-3.72619e-05
-9.22194e-07
-3.45998e-05
-7.26077e-07
-3.08689e-05
-6.19972e-07
-3.12971e-05
-4.47345e-07
-3.6617e-05
-4.83087e-07
-2.95086e-05
-4.27317e-07
-3.08717e-05
-4.02435e-07
-3.85008e-05
-4.16994e-07
-3.07365e-05
-4.62146e-07
-2.85355e-05
-4.3542e-07
-3.31186e-05
-5.32635e-07
-3.66221e-05
-6.05135e-07
-3.30971e-05
-5.38638e-08
-2.23682e-05
3.61009e-07
-1.73387e-05
5.79846e-07
-1.58544e-05
2.51195e-07
-1.80272e-05
-1.24219e-07
-1.5382e-05
-2.1417e-07
-1.10596e-05
-1.44818e-07
-8.79217e-06
-1.26442e-07
-7.6256e-06
-1.71328e-07
-5.79854e-06
-1.3801e-07
-3.40595e-06
-1.85576e-07
-1.28035e-07
-4.85978e-05
-1.74765e-06
-5.64797e-05
-1.29349e-06
-6.33011e-05
-9.45736e-07
-4.92508e-05
-6.89664e-07
-4.47628e-05
-4.67215e-07
-4.78708e-05
-3.67478e-07
-4.89701e-05
-2.61921e-07
-5.01427e-05
-1.82475e-07
-5.41672e-05
-1.33538e-07
-5.13607e-05
-1.14042e-07
-4.35271e-05
-7.90981e-08
-4.88207e-05
-5.23986e-08
-5.55891e-05
-4.2406e-08
-5.71681e-05
-2.94989e-08
-5.88426e-05
-2.46866e-08
-5.40669e-05
-1.86088e-08
-5.40635e-05
-1.18797e-08
-5.4061e-05
-9.6936e-09
-5.00047e-05
-6.90151e-09
-5.12856e-05
-4.91768e-09
-5.26342e-05
-3.25039e-09
-4.87823e-05
-2.63846e-09
-4.76203e-05
-1.70325e-09
-4.44453e-05
-1.16563e-09
-4.25538e-05
-9.16778e-10
-5.00005e-05
-6.43768e-10
-5.5556e-05
-6.15296e-10
-5.88239e-05
-4.57722e-10
-6.25003e-05
-3.16995e-10
-4.87806e-05
-2.31884e-10
-4.44445e-05
-1.76676e-10
-4.76191e-05
-1.70926e-10
-4.76191e-05
-1.31756e-10
-4.54545e-05
-1.59236e-10
-5.1282e-05
-1.59018e-10
-5.88234e-05
-2.23871e-10
-5.12819e-05
-2.52828e-10
-4.44442e-05
-3.39014e-10
-4.76187e-05
-4.28384e-10
-6.06054e-05
-5.48904e-10
-5.40533e-05
-8.47349e-10
-5.4053e-05
-1.09177e-09
-5.12806e-05
-1.52774e-09
-4.34766e-05
-1.64021e-09
-5.12793e-05
-2.768e-09
-5.71387e-05
-3.58861e-09
-5.1277e-05
-5.59723e-09
-4.76126e-05
-6.52048e-09
-5.12725e-05
-8.89668e-09
-5.71283e-05
-1.18466e-08
-6.0585e-05
-2.1201e-08
-5.71157e-05
-2.43304e-08
-4.99675e-05
-3.22822e-08
-4.54142e-05
-3.89226e-08
-4.43905e-05
-5.05659e-08
-5.25443e-05
-8.08259e-08
-6.43698e-05
-1.12053e-07
-6.64599e-05
-1.90805e-07
-5.69006e-05
-2.31517e-07
-5.52344e-05
-2.72663e-07
-6.40099e-05
-3.97385e-07
-5.99664e-05
-4.63043e-07
-5.63438e-05
-6.23242e-07
-5.03519e-05
-7.41596e-07
-4.34266e-05
-6.83164e-07
-4.74169e-05
-7.92319e-07
-5.23107e-05
-8.05019e-07
-5.2269e-05
-9.16403e-07
-4.82707e-05
-8.85831e-07
-4.0797e-05
-1.42215e-06
-3.97242e-05
-1.93963e-06
-4.47463e-05
-1.87986e-06
-3.71908e-05
-1.79391e-06
-3.08833e-05
-1.14093e-06
-3.05409e-05
-1.01547e-06
-2.89517e-05
-8.63537e-07
-3.44303e-05
-6.98762e-07
-3.60131e-05
-8.70525e-07
-2.96365e-05
-6.30176e-07
-2.68166e-05
-5.28798e-07
-2.55501e-05
-5.05467e-07
-2.90986e-05
-4.35932e-07
-2.90579e-05
-4.71905e-07
-2.70954e-05
-4.05956e-07
-3.04802e-05
-4.49705e-07
-2.97462e-05
-4.56328e-07
-2.65288e-05
-5.12613e-07
-2.74117e-05
-5.81838e-07
-2.70519e-05
-2.0297e-07
-2.3558e-05
6.13796e-07
-2.7027e-05
4.68414e-07
-2.04231e-05
1.66789e-07
-1.66242e-05
-1.70314e-07
-1.508e-05
-1.834e-07
-1.29391e-05
-1.38099e-07
-9.13884e-06
-9.10839e-08
-6.87663e-06
5.07009e-08
-5.99861e-06
-5.71892e-08
-2.98805e-06
2.24482e-08
-5.40993e-10
-5.62054e-05
-1.84033e-06
-4.80882e-05
-1.4246e-06
-4.38185e-05
-8.71068e-07
-5.03002e-05
-7.10183e-07
-5.58065e-05
-5.7944e-07
-5.42356e-05
-4.38077e-07
-4.89015e-05
-3.30576e-07
-4.55376e-05
-2.13662e-07
-4.88459e-05
-1.46186e-07
-5.71991e-05
-1.30273e-07
-5.8866e-05
-9.29171e-08
-5.13092e-05
-7.3887e-08
-4.76375e-05
-5.26082e-08
-5.00142e-05
-3.74846e-08
-5.71548e-05
-2.67275e-08
-5.5564e-05
-2.32421e-08
-5.40601e-05
-1.3965e-08
-5.88284e-05
-9.72765e-09
-6.06097e-05
-7.48897e-09
-5.12843e-05
-6.29106e-09
-5.00016e-05
-3.91651e-09
-5.26328e-05
-3.47758e-09
-4.44452e-05
-2.213e-09
-4.76197e-05
-1.37024e-09
-5.12826e-05
-1.33128e-09
-5.2632e-05
-8.32452e-10
-6.25003e-05
-6.47171e-10
-5.40543e-05
-5.22708e-10
-4.54547e-05
-3.53546e-10
-5.12822e-05
-2.79786e-10
-6.25001e-05
-2.12912e-10
-5.40541e-05
-2.33386e-10
-5.40541e-05
-1.58615e-10
-6.25e-05
-1.92594e-10
-5.71428e-05
-1.82428e-10
-5.26315e-05
-2.7122e-10
-5.55554e-05
-3.13801e-10
-6.45159e-05
-4.33788e-10
-5.26313e-05
-6.54799e-10
-4.54543e-05
-5.88027e-10
-5.40536e-05
-9.19677e-10
-5.26309e-05
-1.25083e-09
-4.44437e-05
-1.44499e-09
-5.12808e-05
-2.15851e-09
-5.12803e-05
-3.63851e-09
-4.99977e-05
-4.02032e-09
-5.40506e-05
-6.4026e-09
-4.99956e-05
-7.4914e-09
-4.54491e-05
-1.16075e-08
-5.12736e-05
-1.50299e-08
-5.40419e-05
-2.22192e-08
-4.76044e-05
-2.79819e-08
-4.6492e-05
-3.54379e-08
-4.3453e-05
-5.20288e-08
-4.996e-05
-6.7431e-08
-5.12253e-05
-9.90429e-08
-5.39711e-05
-1.34653e-07
-6.04761e-05
-2.23919e-07
-5.69706e-05
-2.34545e-07
-5.85724e-05
-3.93627e-07
-5.23122e-05
-4.64284e-07
-5.50775e-05
-5.87622e-07
-6.37399e-05
-7.83398e-07
-5.62074e-05
-9.75001e-07
-5.59168e-05
-1.09091e-06
-4.99025e-05
-1.16081e-06
-4.72286e-05
-9.51997e-07
-4.82985e-05
-9.47515e-07
-4.45085e-05
-1.54869e-06
-5.00777e-05
-2.07764e-06
-5.41275e-05
-2.12581e-06
-4.56066e-05
-1.61265e-06
-4.38458e-05
-1.15496e-06
-3.66965e-05
-1.0577e-06
-3.23358e-05
-6.82025e-07
-3.09016e-05
-7.29601e-07
-3.08302e-05
-6.27567e-07
-3.57362e-05
-6.62629e-07
-3.34576e-05
-7.08747e-07
-3.50878e-05
-6.18547e-07
-3.30522e-05
-5.57365e-07
-2.83372e-05
-4.49052e-07
-2.82989e-05
-4.09891e-07
-2.96834e-05
-4.84298e-07
-2.76895e-05
-5.10937e-07
-2.65432e-05
-4.38795e-07
-2.66314e-05
-5.41667e-07
-2.63742e-05
-5.30562e-07
-2.79483e-05
-5.22241e-07
-2.70429e-05
6.79636e-07
-2.88624e-05
2.53551e-07
-2.03949e-05
-1.03041e-07
-1.3364e-05
2.25066e-08
-1.28035e-05
-3.70675e-08
-1.10516e-05
-1.48646e-07
-9.05218e-06
-6.68879e-08
-8.51366e-06
-1.47866e-07
-5.67986e-06
-4.58608e-08
-3.29443e-06
8.28703e-08
1.92203e-07
-5.01899e-05
-1.95581e-06
-4.6663e-05
-1.45318e-06
-4.55738e-05
-9.37875e-07
-4.77159e-05
-7.37586e-07
-4.88556e-05
-6.04738e-07
-5.26921e-05
-4.46835e-07
-5.26765e-05
-3.12871e-07
-4.65409e-05
-2.54637e-07
-4.8803e-05
-1.53578e-07
-5.0017e-05
-1.23553e-07
-5.12948e-05
-8.43526e-08
-6.25114e-05
-8.23846e-08
-6.45248e-05
-5.53104e-08
-5.71485e-05
-4.41887e-08
-5.7147e-05
-2.60458e-08
-5.71459e-05
-2.05791e-08
-4.65134e-05
-1.63616e-08
-4.34795e-05
-1.07526e-08
-5.00011e-05
-7.49015e-09
-5.71438e-05
-5.6225e-09
-6.06068e-05
-4.01754e-09
-6.06066e-05
-3.26116e-09
-5.26319e-05
-2.45609e-09
-5.40543e-05
-1.66235e-09
-5.71431e-05
-1.32198e-09
-5.00001e-05
-1.0003e-09
-4.87806e-05
-6.01331e-10
-5.40541e-05
-4.80894e-10
-6.06061e-05
-4.14221e-10
-5.12821e-05
-3.38765e-10
-5.12821e-05
-2.23884e-10
-5.55556e-05
-2.17379e-10
-5e-05
-1.79639e-10
-4.54546e-05
-1.86559e-10
-5.12821e-05
-1.71006e-10
-6.45161e-05
-2.47709e-10
-5.88235e-05
-3.21099e-10
-6.0606e-05
-4.30857e-10
-5.4054e-05
-6.07612e-10
-4.99999e-05
-6.95707e-10
-4.87804e-05
-9.43028e-10
-4.2553e-05
-1.09161e-09
-4.65114e-05
-1.70516e-09
-5.40536e-05
-2.27048e-09
-5.40535e-05
-3.09865e-09
-5.26308e-05
-5.07615e-09
-4.87794e-05
-5.91658e-09
-5.12805e-05
-8.95252e-09
-6.24974e-05
-1.2924e-08
-5.55524e-05
-1.71595e-08
-5.26274e-05
-1.91744e-08
-5.12764e-05
-2.81057e-08
-5.26236e-05
-3.93535e-08
-5.8811e-05
-6.51767e-08
-5.12666e-05
-7.73657e-08
-5.40308e-05
-1.1169e-07
-6.24611e-05
-1.52891e-07
-5.25829e-05
-2.09535e-07
-5.39779e-05
-2.58739e-07
-5.86935e-05
-4.4374e-07
-5.69397e-05
-5.24462e-07
-5.52352e-05
-6.88563e-07
-5.21492e-05
-8.55417e-07
-5.80086e-05
-1.09043e-06
-5.44637e-05
-1.27637e-06
-4.63629e-05
-1.31537e-06
-4.19741e-05
-1.30833e-06
-4.88422e-05
-1.40506e-06
-5.50082e-05
-1.69233e-06
-4.20294e-05
-1.01898e-06
-3.65366e-05
-9.29635e-07
-3.49962e-05
-1.22299e-06
-3.37311e-05
-1.10034e-06
-3.68144e-05
-1.1382e-06
-3.47855e-05
-1.0248e-06
-3.56736e-05
-8.41029e-07
-3.32989e-05
-9.66232e-07
-3.26986e-05
-6.30357e-07
-3.979e-05
-8.10377e-07
-3.31144e-05
-6.05965e-07
-2.83506e-05
-5.75369e-07
-2.70133e-05
-4.24682e-07
-3.11395e-05
-3.89554e-07
-3.92007e-05
-4.46341e-07
-3.68803e-05
-4.74188e-07
-3.69886e-05
-4.39525e-07
-3.31734e-05
-3.97388e-07
-3.28583e-05
-2.21861e-07
-4.07081e-05
6.95865e-08
-3.15794e-05
-5.70679e-08
-2.03515e-05
8.67735e-08
-1.58409e-05
1.90379e-07
-1.4519e-05
9.37432e-08
-1.31789e-05
-1.0868e-07
-1.0901e-05
-1.29199e-07
-8.84982e-06
-1.24783e-07
-5.98292e-06
5.83416e-09
-4.39829e-06
1.7726e-08
-2.90012e-06
3.02386e-08
1.26505e-08
-5.86002e-05
-2.25589e-06
-4.98374e-05
-1.32036e-06
-4.53354e-05
-1.02351e-06
-4.98984e-05
-6.63867e-07
-5.39709e-05
-5.7944e-07
-4.75644e-05
-4.89615e-07
-4.99575e-05
-2.91222e-07
-5.12499e-05
-2.49272e-07
-4.4424e-05
-1.68676e-07
-4.44294e-05
-1.07113e-07
-5.26186e-05
-8.21126e-08
-5.40443e-05
-8.34205e-08
-5.26246e-05
-4.40438e-08
-5.12771e-05
-3.96263e-08
-4.54513e-05
-2.25697e-08
-5.26289e-05
-1.9572e-08
-6.45137e-05
-1.60185e-08
-5.88219e-05
-1.04954e-08
-4.87795e-05
-7.30155e-09
-4.34776e-05
-5.09259e-09
-4.4444e-05
-3.72984e-09
-4.99996e-05
-2.86885e-09
-5.40538e-05
-2.10222e-09
-5.26314e-05
-1.86836e-09
-5.55554e-05
-1.1039e-09
-5.26315e-05
-8.32375e-10
-4.7619e-05
-5.4645e-10
-5.26315e-05
-4.81403e-10
-5.71428e-05
-3.44692e-10
-5.88235e-05
-3.22185e-10
-5.55556e-05
-2.43357e-10
-5.26316e-05
-1.85558e-10
-5.40541e-05
-1.80115e-10
-5e-05
-1.87329e-10
-4.44445e-05
-1.66293e-10
-4.54546e-05
-2.08246e-10
-5.12821e-05
-2.69095e-10
-5.40542e-05
-3.68877e-10
-5.40542e-05
-4.91298e-10
-5.00002e-05
-6.45655e-10
-4.34784e-05
-7.97398e-10
-4.87808e-05
-1.0846e-09
-5.00004e-05
-1.7054e-09
-4.25536e-05
-1.97237e-09
-5.00006e-05
-2.57995e-09
-5.26325e-05
-5.12379e-09
-5.40553e-05
-5.37015e-09
-6.06079e-05
-1.01746e-08
-5.12842e-05
-1.1646e-08
-4.54571e-05
-1.47197e-08
-4.25564e-05
-2.01182e-08
-4.76239e-05
-2.61961e-08
-5.71506e-05
-3.58333e-08
-5.40639e-05
-5.72268e-08
-5.71565e-05
-8.06643e-08
-5.71607e-05
-1.04749e-07
-5.00198e-05
-1.30132e-07
-5.26568e-05
-1.99401e-07
-5.71724e-05
-2.70356e-07
-5.71653e-05
-3.70461e-07
-4.99912e-05
-4.89074e-07
-4.75361e-05
-6.65858e-07
-4.85361e-05
-9.70373e-07
-4.49896e-05
-1.47117e-06
-4.36925e-05
-1.37302e-06
-4.24389e-05
-1.77486e-06
-4.04297e-05
-1.49517e-06
-4.60731e-05
-1.74102e-06
-5.31735e-05
-1.99556e-06
-4.35336e-05
-1.23433e-06
-3.88161e-05
-4.46089e-07
-3.91018e-05
-8.29672e-07
-3.93563e-05
-8.19604e-07
-4.03684e-05
-1.06557e-06
-3.57413e-05
-8.48639e-07
-3.78617e-05
-7.46685e-07
-3.33489e-05
-8.48819e-07
-3.1853e-05
-5.64814e-07
-3.08113e-05
-6.02292e-07
-3.21383e-05
-5.02903e-07
-3.12378e-05
-5.41676e-07
-2.52879e-05
-4.26425e-07
-2.58058e-05
-4.28231e-07
-2.82241e-05
-3.51887e-07
-3.1989e-05
-3.53562e-07
-3.12412e-05
-3.2962e-07
-2.90949e-05
-2.65639e-07
-2.85918e-05
-2.57468e-07
-2.98701e-05
-2.83568e-07
-2.87437e-05
9.75244e-08
-2.44598e-05
6.42968e-08
-2.03645e-05
-2.40394e-08
-1.65878e-05
-1.45319e-07
-1.21215e-05
-5.91635e-08
-9.06102e-06
-3.70148e-08
-7.45093e-06
-1.54978e-08
-6.52094e-06
-6.83025e-08
-4.71721e-06
-8.09497e-08
-3.12721e-06
-1.52314e-07
-1.38951e-07
-5.20161e-05
-2.12995e-06
-4.83e-05
-1.32753e-06
-4.72466e-05
-1.05382e-06
-4.41777e-05
-6.56022e-07
-5.53048e-05
-4.7861e-07
-5.86261e-05
-3.67477e-07
-5.25011e-05
-2.99338e-07
-5.54542e-05
-1.96511e-07
-5.12134e-05
-1.36795e-07
-4.64659e-05
-9.77503e-08
-5.55156e-05
-7.15646e-08
-5.40256e-05
-6.66886e-08
-4.99807e-05
-4.24055e-08
-4.87667e-05
-3.4704e-08
-5.12715e-05
-1.96366e-08
-5.88146e-05
-1.97713e-08
-4.87751e-05
-1.36262e-08
-4.54509e-05
-7.88975e-09
-4.87776e-05
-6.90107e-09
-5.26293e-05
-5.05387e-09
-5.40524e-05
-4.03794e-09
-4.99989e-05
-2.5687e-09
-5.55546e-05
-1.88225e-09
-5.55549e-05
-1.45677e-09
-4.44441e-05
-1.06936e-09
-4.25529e-05
-6.29324e-10
-4.87803e-05
-4.86407e-10
-4.99999e-05
-4.57638e-10
-5.26315e-05
-2.72735e-10
-5.88235e-05
-2.26099e-10
-5.26316e-05
-1.72518e-10
-5.26316e-05
-1.66401e-10
-5.55556e-05
-1.71829e-10
-4.87805e-05
-1.63959e-10
-4.65117e-05
-1.44727e-10
-4.87806e-05
-1.81432e-10
-4.65118e-05
-2.59932e-10
-4.65118e-05
-3.06229e-10
-4.54548e-05
-4.07843e-10
-4.34786e-05
-5.49367e-10
-4.5455e-05
-7.10035e-10
-4.65123e-05
-9.22864e-10
-4.44453e-05
-1.45115e-09
-4.25543e-05
-2.03178e-09
-4.87822e-05
-2.19567e-09
-5.26341e-05
-3.99779e-09
-5.40576e-05
-4.4679e-09
-5.71479e-05
-7.89978e-09
-5.26379e-05
-8.73959e-09
-5.55647e-05
-1.35617e-08
-5.71556e-05
-1.71552e-08
-4.76335e-05
-2.68253e-08
-4.65309e-05
-2.98944e-08
-5.88566e-05
-4.40395e-08
-5.40954e-05
-7.10945e-08
-4.65601e-05
-7.38535e-08
-5.27062e-05
-1.09144e-07
-5.41582e-05
-1.87033e-07
-4.77431e-05
-2.54822e-07
-4.36278e-05
-3.11649e-07
-4.3661e-05
-3.96117e-07
-4.56358e-05
-7.62277e-07
-5.41131e-05
-1.10824e-06
-5.23616e-05
-2.04395e-06
-4.93056e-05
-2.01692e-06
-4.76765e-05
-2.62746e-06
-4.52042e-05
-1.7601e-06
-4.86406e-05
-1.97912e-06
-4.50748e-05
-2.03423e-06
-4.35156e-05
-2.3932e-06
-4.08316e-05
-1.63717e-06
-3.96264e-05
-4.14981e-07
-3.91301e-05
-9.39341e-08
-4.03247e-05
-1.80867e-07
-3.52113e-05
-3.44391e-07
-3.37914e-05
-2.49007e-07
-3.43189e-05
-4.52469e-07
-2.82594e-05
-3.59351e-07
-3.15014e-05
-3.64203e-07
-3.21771e-05
-5.05565e-07
-3.20031e-05
-3.65627e-07
-3.79376e-05
-4.68103e-07
-3.19338e-05
-3.84368e-07
-2.63764e-05
-3.35149e-07
-2.58483e-05
-3.46718e-07
-2.53613e-05
-2.62891e-07
-2.65699e-05
-2.04822e-07
-2.76492e-05
1.41568e-07
-2.80356e-05
1.00552e-07
-2.7077e-05
-6.84258e-07
-2.79042e-05
-3.07393e-08
-1.95282e-05
1.77228e-08
-1.41992e-05
1.31263e-07
-1.21378e-05
1.84161e-07
-1.02729e-05
3.76871e-08
-8.95378e-06
5.48483e-08
-7.18524e-06
6.90888e-08
-5.13227e-06
1.08708e-07
-2.91485e-06
7.4786e-08
3.98671e-08
-6.12156e-05
-1.627e-06
-6.14605e-05
-1.12125e-06
-5.80697e-05
-9.14113e-07
-5.35331e-05
-6.04204e-07
-4.51291e-05
-3.33306e-07
-4.97358e-05
-2.40448e-07
-5.53397e-05
-2.02119e-07
-4.53249e-05
-1.3015e-07
-4.53595e-05
-8.69478e-08
-4.87058e-05
-6.79012e-08
-5.12245e-05
-5.20421e-08
-5.87752e-05
-4.57068e-08
-6.24624e-05
-3.34598e-08
-5.40303e-05
-2.76583e-08
-5.40366e-05
-1.39509e-08
-6.24853e-05
-1.31338e-08
-5.5546e-05
-1.05188e-08
-5.71357e-05
-6.66164e-09
-6.45102e-05
-5.82237e-09
-6.45118e-05
-3.47839e-09
-5.88206e-05
-2.48219e-09
-5.55536e-05
-1.68835e-09
-5.26302e-05
-1.48456e-09
-5.55545e-05
-9.52414e-10
-5.55548e-05
-9.32147e-10
-4.878e-05
-4.89788e-10
-5.55552e-05
-3.89555e-10
-5.40538e-05
-3.64592e-10
-4.44443e-05
-2.18439e-10
-4.16666e-05
-1.68468e-10
-4.87804e-05
-1.22434e-10
-6.25e-05
-1.31598e-10
-6.25e-05
-1.37389e-10
-5.26317e-05
-1.06974e-10
-4.65117e-05
-1.25136e-10
-5.26318e-05
-1.31915e-10
-5.71431e-05
-1.74803e-10
-5.12824e-05
-2.17313e-10
-5.2632e-05
-2.7624e-10
-5.26322e-05
-4.96094e-10
-4.54553e-05
-5.41221e-10
-4.87815e-05
-7.54553e-10
-6.25018e-05
-1.20975e-09
-5.12841e-05
-1.87047e-09
-4.65142e-05
-1.74098e-09
-4.76226e-05
-2.49088e-09
-4.87854e-05
-3.76107e-09
-4.87872e-05
-5.74428e-09
-4.87896e-05
-5.68029e-09
-4.8793e-05
-1.01409e-08
-5.00175e-05
-1.31431e-08
-5.55821e-05
-2.01069e-08
-5.00326e-05
-2.22944e-08
-5.00445e-05
-3.29098e-08
-4.76771e-05
-4.75842e-08
-4.55306e-05
-6.04164e-08
-5.27529e-05
-7.90038e-08
-6.27004e-05
-1.23133e-07
-5.90902e-05
-1.78994e-07
-4.68166e-05
-2.35949e-07
-4.92469e-05
-2.76743e-07
-5.47241e-05
-6.01441e-07
-5.46228e-05
-1.16963e-06
-5.89707e-05
-2.20225e-06
-5.9946e-05
-3.26465e-06
-5.00149e-05
-3.10836e-06
-4.69396e-05
-2.86563e-06
-4.62428e-05
-2.54948e-06
-3.82627e-05
-1.73152e-06
-3.61532e-05
-9.98074e-07
-4.22962e-05
-8.9665e-07
-4.99198e-05
-9.67281e-07
-3.96823e-05
-7.12018e-07
-3.57579e-05
-4.16631e-07
-3.88599e-05
-4.6335e-07
-3.22392e-05
-4.69788e-07
-2.79976e-05
-3.90625e-07
-2.75573e-05
-3.93065e-07
-3.22446e-05
-3.70901e-07
-3.21168e-05
-5.24968e-07
-3.11161e-05
-3.62458e-07
-3.03017e-05
-3.96318e-07
-2.81574e-05
-2.94363e-07
-3.46161e-05
-3.53811e-07
-3.10906e-05
-3.39909e-07
-2.95723e-05
-3.24653e-07
-3.34855e-05
-4.60782e-07
-3.39207e-05
-8.21957e-07
-3.41356e-05
-9.08158e-07
-3.27347e-05
6.5646e-07
-2.49662e-05
2.67356e-07
-1.62377e-05
3.7184e-08
-1.50806e-05
-5.24074e-09
-1.34613e-05
-2.28993e-07
-9.52112e-06
-1.14088e-07
-8.89143e-06
-1.77715e-07
-7.63173e-06
-1.92994e-07
-5.94961e-06
-1.45478e-07
-3.31087e-06
-1.43384e-07
-6.48397e-08
-4.30678e-05
-1.27022e-06
-5.14048e-05
-6.99476e-07
-6.14269e-05
-4.84921e-07
-4.8167e-05
-3.24509e-07
-4.50362e-05
-1.88479e-07
-4.72984e-05
-1.41031e-07
-4.42254e-05
-1.01728e-07
-4.33214e-05
-7.57632e-08
-4.24408e-05
-5.12742e-08
-4.43585e-05
-3.93195e-08
-5.25571e-05
-2.94865e-08
-5.5498e-05
-2.40392e-08
-5.87789e-05
-1.75946e-08
-5.12536e-05
-1.36609e-08
-4.64927e-05
-8.25144e-09
-5.71259e-05
-6.04161e-09
-6.05929e-05
-4.65659e-09
-6.05964e-05
-3.32228e-09
-5.26255e-05
-2.71077e-09
-4.34746e-05
-1.51036e-09
-4.25506e-05
-1.06001e-09
-4.87783e-05
-9.55583e-10
-5.40523e-05
-7.37991e-10
-5.88221e-05
-5.41046e-10
-5.55546e-05
-3.76751e-10
-4.99994e-05
-2.45632e-10
-5.8823e-05
-1.99543e-10
-6.06057e-05
-1.60486e-10
-6.06058e-05
-1.09177e-10
-5.88234e-05
-1.0791e-10
-5.55555e-05
-6.92038e-11
-6.25e-05
-6.53894e-11
-5.40541e-05
-6.02758e-11
-5.26317e-05
-5.93948e-11
-5.55557e-05
-6.09875e-11
-4.54547e-05
-6.78847e-11
-4.25534e-05
-8.37046e-11
-4.25535e-05
-1.23233e-10
-5.12826e-05
-1.45416e-10
-5.55564e-05
-2.26727e-10
-5.40551e-05
-2.65349e-10
-6.06077e-05
-4.53646e-10
-6.25023e-05
-5.40876e-10
-5.71457e-05
-8.68046e-10
-4.65148e-05
-9.15653e-10
-5.26365e-05
-1.44798e-09
-6.45243e-05
-1.97823e-09
-5.00087e-05
-3.11319e-09
-4.76303e-05
-3.60135e-09
-6.06257e-05
-4.68521e-09
-6.25276e-05
-7.96499e-09
-5.00302e-05
-8.77665e-09
-4.88207e-05
-1.14626e-08
-5.56183e-05
-1.82532e-08
-5.72313e-05
-2.25635e-08
-5.27433e-05
-3.16112e-08
-4.89231e-05
-4.76678e-08
-5.02031e-05
-5.70393e-08
-5.29351e-05
-7.31883e-08
-4.92047e-05
-8.4446e-08
-4.41342e-05
-4.81776e-09
-4.45874e-05
-8.47736e-08
-4.76708e-05
-1.23044e-06
-5.60064e-05
-3.31422e-06
-5.30178e-05
-4.2053e-06
-5.15575e-05
-3.37861e-06
-4.84392e-05
-3.39555e-06
-4.23732e-05
-2.2383e-06
-4.04756e-05
-1.76854e-06
-4.20892e-05
-5.40405e-07
-4.13258e-05
7.67974e-08
-3.30299e-05
3.51971e-07
-3.35308e-05
2.48378e-07
-3.38287e-05
-2.08919e-08
-3.73887e-05
-1.93313e-07
-3.88806e-05
-4.00334e-07
-3.3901e-05
-3.6886e-07
-3.08689e-05
-3.51542e-07
-3.29681e-05
-3.21688e-07
-3.37271e-05
-3.77089e-07
-2.87667e-05
-2.98263e-07
-2.62162e-05
-2.95043e-07
-2.80363e-05
-2.38593e-07
-2.87468e-05
-2.79312e-07
-2.81366e-05
-2.65184e-07
-3.03277e-05
-3.01436e-07
-2.97311e-05
-3.176e-07
-3.45003e-05
-3.44069e-07
-3.36141e-05
-6.75575e-08
-2.76958e-05
-1.68721e-07
-2.76385e-05
-4.41293e-08
-2.00539e-05
3.08763e-07
-1.67991e-05
5.83052e-08
-1.20688e-05
6.80921e-08
-1.00312e-05
1.25034e-07
-8.01617e-06
-3.01003e-09
-6.50548e-06
-8.40097e-09
-5.39424e-06
5.57946e-08
-2.651e-06
7.63344e-08
1.00047e-08
-5.80544e-05
-5.39743e-05
-5.15802e-05
-5.47612e-05
-5.20874e-05
-5.22358e-05
-5.85009e-05
-5.69139e-05
-5.69754e-05
-5.86974e-05
-5.54684e-05
-5.8756e-05
-5.87741e-05
-5.87873e-05
-5.40297e-05
-4.64963e-05
-4.54436e-05
-4.87719e-05
-4.65056e-05
-4.16627e-05
-4.99966e-05
-5.714e-05
-5.40521e-05
-4.76178e-05
-4.25524e-05
-4.54539e-05
-4.65112e-05
-4.44441e-05
-4.99998e-05
-5.26314e-05
-4.99999e-05
-5e-05
-5.55556e-05
-5.12821e-05
-4.25533e-05
-4.65118e-05
-5.55559e-05
-5.5556e-05
-4.65122e-05
-4.3479e-05
-4.76201e-05
-4.76205e-05
-4.7621e-05
-4.65142e-05
-5.12859e-05
-5.2637e-05
-5.0007e-05
-6.2512e-05
-5.26454e-05
-4.8798e-05
-4.76424e-05
-4.5485e-05
-5.1329e-05
-4.76788e-05
-4.35529e-05
-5.27552e-05
-5.73261e-05
-5.1505e-05
-5.74728e-05
-5.0363e-05
-5.17337e-05
-5.76973e-05
-5.43313e-05
-5.15918e-05
-4.19641e-05
-4.54346e-05
-4.7824e-05
-4.56756e-05
-4.41403e-05
-4.43128e-05
-4.43074e-05
-4.22097e-05
-3.9328e-05
-3.56307e-05
-3.27671e-05
-2.68656e-05
-2.74396e-05
-3.16799e-05
-2.97798e-05
-2.61968e-05
-2.80916e-05
-2.74703e-05
-2.50968e-05
-2.83735e-05
-3.00355e-05
-2.87141e-05
-2.96757e-05
-2.85447e-05
-2.59047e-05
-2.44963e-05
-2.61228e-05
-2.21636e-05
-1.51219e-05
-1.3093e-05
-1.14049e-05
-7.54796e-06
-6.15891e-06
-5.95162e-06
-3.20276e-06
)
;

boundaryField
{
    inlet
    {
        type            fixedValue;
        value           uniform 0;
    }
    outlet
    {
        type            calculated;
        value           nonuniform List<scalar> 10(4.84943e-05 6.48708e-05 4.87098e-05 5.62547e-05 5.02018e-05 6.22479e-05 6.58279e-05 5.74763e-05 4.37304e-05 5.48899e-05);
    }
    walls
    {
        type            fixedValue;
        value           uniform 0;
    }
}


// ************************************************************************* //
