/*--------------------------------*- C++ -*----------------------------------*\
| =========                 |                                                 |
| \\      /  F ield         | foam-extend: Open Source CFD                    |
|  \\    /   O peration     | Version:     5.0                                |
|   \\  /    A nd           | Web:         http://www.foam-extend.org         |
|    \\/     M anipulation  |                                                 |
\*---------------------------------------------------------------------------*/
FoamFile
{
    version     2.0;
    format      ascii;
    class       volVectorField;
    location    "2000";
    object      U.gas;
}
// * * * * * * * * * * * * * * * * * * * * * * * * * * * * * * * * * * * * * //

dimensions      [0 1 -1 0 0 0 0];

internalField   nonuniform List<vector> 
1000
(
(0 0 0)
(0 0 0)
(0 0 0)
(0 0 0)
(0 0 0)
(0 0 0)
(0 0 0)
(0 0 0)
(0 0 0)
(0 0 0)
(0 0 0)
(0 0 0)
(0 0 0)
(0 0 0)
(0 0 0)
(0 0 0)
(0 0 0)
(0 0 0)
(0 0 0)
(0 0 0)
(0 0 0)
(0 0 0)
(0 0 0)
(0 0 0)
(0 0 0)
(0 0 0)
(0 0 0)
(0 0 0)
(0 0 0)
(0 0 0)
(0 0 0)
(0 0 0)
(0 0 0)
(0 0 0)
(0 0 0)
(0 0 0)
(0 0 0)
(0 0 0)
(0 0 0)
(0 0 0)
(0 0 0)
(0 0 0)
(0 0 0)
(0 0 0)
(0 0 0)
(0 0 0)
(0 0 0)
(0 0 0)
(0 0 0)
(0 0 0)
(0 0 0)
(0 0 0)
(0 0 0)
(0 0 0)
(0 0 0)
(0 0 0)
(0 0 0)
(0 0 0)
(0 0 0)
(0 0 0)
(0 0 0)
(0 0 0)
(0 0 0)
(0 0 0)
(0 1.31911e-55 0)
(0 2.75984e-23 -2.3406e-20)
(0 -2.65676e-11 -4.34233e-08)
(0 -5.08229e-07 -0.00126076)
(0 -5.86739e-07 -0.00115922)
(0 -8.8408e-07 -0.000901)
(0 -5.20617e-05 -0.000599124)
(0 -9.59726e-05 -0.000731884)
(0 -0.000356033 -0.000254995)
(0 -0.000667507 -1.30002e-05)
(0 -0.000748988 2.46763e-06)
(0 -0.000827392 9.71958e-06)
(0 -0.000928577 1.47522e-05)
(0 -0.000967014 1.66972e-05)
(0 -0.00111668 1.99263e-05)
(0 -0.000872729 1.58743e-05)
(0 -0.000982865 1.82663e-05)
(0 -0.00100054 1.88235e-05)
(0 -0.00101784 1.93338e-05)
(0 -0.00122951 2.34617e-05)
(0 -0.00117682 2.23442e-05)
(0 -0.000967937 1.80227e-05)
(0 -0.00128983 2.27587e-05)
(0 -0.000907625 1.40378e-05)
(0 -0.00103663 2.04586e-05)
(0 -0.00111896 3.00813e-05)
(0 -0.00169813 3.18446e-05)
(0 -0.00133986 2.44783e-05)
(0 -0.00115054 2.52153e-05)
(0 -0.00139284 3.01465e-05)
(0 -0.00146937 3.07736e-05)
(0 -0.0012456 2.82351e-05)
(0 -0.00117797 3.10362e-05)
(0 -0.00111474 3.33764e-05)
(0 -0.00159831 4.44863e-05)
(0 -0.00138249 3.76208e-05)
(0 0 0)
(0 0 0)
(0 0 0)
(0 0 0)
(0 0 0)
(0 0 0)
(0 0 0)
(0 0 0)
(0 0 0)
(0 0 0)
(0 0 0)
(0 0 0)
(0 0 0)
(0 0 0)
(0 0 0)
(0 0 0)
(0 0 0)
(0 0 0)
(0 0 0)
(0 0 0)
(0 0 0)
(0 0 0)
(0 0 0)
(0 0 0)
(0 0 0)
(0 0 0)
(0 0 0)
(0 0 0)
(0 0 0)
(0 0 0)
(0 0 0)
(0 0 0)
(0 0 0)
(0 0 0)
(0 0 0)
(0 0 0)
(0 0 0)
(0 0 0)
(0 0 0)
(0 0 0)
(0 0 0)
(0 0 0)
(0 0 0)
(0 0 0)
(0 0 0)
(0 0 0)
(0 0 0)
(0 0 0)
(0 0 0)
(0 0 0)
(0 0 0)
(0 0 0)
(0 0 0)
(0 0 0)
(0 0 0)
(0 0 0)
(0 0 0)
(0 0 0)
(0 0 0)
(0 0 0)
(0 0 0)
(0 0 0)
(0 0 0)
(0 0 0)
(0 4.61581e-16 0)
(0 -0.000106645 -1.36638e-17)
(0 -0.00126074 3.72644e-10)
(0 -0.00117214 1.43567e-07)
(0 -0.0010458 2.05148e-06)
(0 -0.00110085 9.98491e-06)
(0 -0.00109454 9.57238e-06)
(0 -0.00112612 -2.46837e-06)
(0 -0.00102741 -6.56069e-06)
(0 -0.00123646 -5.84685e-06)
(0 -0.00145118 2.04227e-06)
(0 -0.00164056 1.7083e-05)
(0 -0.00163816 2.90629e-05)
(0 -0.00123307 2.78306e-05)
(0 -0.0014557 3.5851e-05)
(0 -0.00103738 2.72065e-05)
(0 -0.00156285 4.28933e-05)
(0 -0.0013972 3.97727e-05)
(0 -0.00105432 3.08938e-05)
(0 -0.00159111 4.73961e-05)
(0 -0.00160057 4.78318e-05)
(0 -0.00107226 3.14599e-05)
(0 -0.00135984 3.78217e-05)
(0 -0.00144081 3.63813e-05)
(0 -0.0016821 6.10577e-05)
(0 -0.00135266 5.81299e-05)
(0 -0.00135289 5.203e-05)
(0 -0.00128267 4.82955e-05)
(0 -0.00175904 6.22952e-05)
(0 -0.00194481 6.66213e-05)
(0 -0.00158897 5.76052e-05)
(0 -0.001397 5.60197e-05)
(0 -0.00158719 6.96731e-05)
(0 -0.00162242 8.41658e-05)
(0 -0.00165514 8.20497e-05)
(0 -0.00130986 6.56997e-05)
(0 0 0)
(0 0 0)
(0 0 0)
(0 0 0)
(0 0 0)
(0 0 0)
(0 0 0)
(0 0 0)
(0 0 0)
(0 0 0)
(0 0 0)
(0 0 0)
(0 0 0)
(0 0 0)
(0 0 0)
(0 0 0)
(0 0 0)
(0 0 0)
(0 0 0)
(0 0 0)
(0 0 0)
(0 0 0)
(0 0 0)
(0 0 0)
(0 0 0)
(0 0 0)
(0 0 0)
(0 0 0)
(0 0 0)
(0 0 0)
(0 0 0)
(0 0 0)
(0 0 0)
(0 0 0)
(0 0 0)
(0 0 0)
(0 0 0)
(0 0 0)
(0 0 0)
(0 0 0)
(0 0 0)
(0 0 0)
(0 0 0)
(0 0 0)
(0 0 0)
(0 0 0)
(0 0 0)
(0 0 0)
(0 0 0)
(0 0 0)
(0 0 0)
(0 0 0)
(0 0 0)
(0 0 0)
(0 0 0)
(0 0 0)
(0 0 0)
(0 0 0)
(0 0 0)
(0 0 0)
(0 0 0)
(0 0 0)
(0 0 0)
(0 0 0)
(0 0 0)
(0 3.29526e-19 -1.36404e-17)
(0 -1.53459e-07 2.97167e-06)
(0 -0.000310387 0.000951089)
(0 -0.000897596 0.000307774)
(0 -0.000941096 9.78999e-05)
(0 -0.000875426 2.26447e-05)
(0 -0.00109391 2.69549e-06)
(0 -0.00139038 -1.02824e-06)
(0 -0.00102781 2.14211e-06)
(0 -0.00121295 9.52011e-06)
(0 -0.00113483 1.86356e-05)
(0 -0.00119857 2.59499e-05)
(0 -0.00175971 4.63151e-05)
(0 -0.00132713 3.85258e-05)
(0 -0.00121093 3.75646e-05)
(0 -0.00111312 3.60747e-05)
(0 -0.00111511 3.7265e-05)
(0 -0.00148836 5.11502e-05)
(0 -0.00111776 3.90979e-05)
(0 -0.00127891 4.47858e-05)
(0 -0.00141537 4.83717e-05)
(0 -0.00122387 3.91957e-05)
(0 -0.00112241 3.21752e-05)
(0 -0.00130497 5.72551e-05)
(0 -0.00126675 7.06364e-05)
(0 -0.00210843 0.000108642)
(0 -0.00182081 8.73812e-05)
(0 -0.00158119 5.93235e-05)
(0 -0.00161511 5.70381e-05)
(0 -0.00165843 6.48856e-05)
(0 -0.00151827 6.52064e-05)
(0 -0.00115379 5.64079e-05)
(0 -0.00158694 8.27917e-05)
(0 -0.00123097 6.75829e-05)
(0 -0.00107493 6.19415e-05)
(0 0 0)
(0 0 0)
(0 0 0)
(0 0 0)
(0 0 0)
(0 0 0)
(0 0 0)
(0 0 0)
(0 0 0)
(0 0 0)
(0 0 0)
(0 0 0)
(0 0 0)
(0 0 0)
(0 0 0)
(0 0 0)
(0 0 0)
(0 0 0)
(0 0 0)
(0 0 0)
(0 0 0)
(0 0 0)
(0 0 0)
(0 0 0)
(0 0 0)
(0 0 0)
(0 0 0)
(0 0 0)
(0 0 0)
(0 0 0)
(0 0 0)
(0 0 0)
(0 0 0)
(0 0 0)
(0 0 0)
(0 0 0)
(0 0 0)
(0 0 0)
(0 0 0)
(0 0 0)
(0 0 0)
(0 0 0)
(0 0 0)
(0 0 0)
(0 0 0)
(0 0 0)
(0 0 0)
(0 0 0)
(0 0 0)
(0 0 0)
(0 0 0)
(0 0 0)
(0 0 0)
(0 0 0)
(0 0 0)
(0 0 0)
(0 0 0)
(0 0 0)
(0 0 0)
(0 0 0)
(0 0 0)
(0 0 0)
(0 0 0)
(0 0 0)
(0 0 0)
(0 -1.36726e-15 -4.91269e-21)
(0 -0.000695598 -3.35355e-08)
(0 -0.00125858 -2.73078e-07)
(0 -0.0011609 -3.62732e-07)
(0 -0.00103835 -3.54716e-06)
(0 -0.00132003 -6.16126e-06)
(0 -0.00139931 2.76341e-06)
(0 -0.00134799 9.09239e-06)
(0 -0.00166401 2.40004e-05)
(0 -0.00113582 2.15359e-05)
(0 -0.0014661 3.36066e-05)
(0 -0.00111791 2.93834e-05)
(0 -0.00158073 4.40971e-05)
(0 -0.00149802 4.61732e-05)
(0 -0.00142207 4.66627e-05)
(0 -0.00168909 5.77647e-05)
(0 -0.00128855 4.53847e-05)
(0 -0.00123063 4.43544e-05)
(0 -0.00128965 4.71977e-05)
(0 -0.00135467 4.96133e-05)
(0 -0.00112958 4.06241e-05)
(0 -0.00123408 4.21042e-05)
(0 -0.00113399 3.41633e-05)
(0 -0.00119071 4.62301e-05)
(0 -0.00142774 9.20614e-05)
(0 -0.00197272 0.000106741)
(0 -0.00205551 8.72156e-05)
(0 -0.00125789 4.69874e-05)
(0 -0.00132927 4.83791e-05)
(0 -0.00157575 5.67954e-05)
(0 -0.00125716 5.05856e-05)
(0 -0.00176667 7.9725e-05)
(0 -0.0014203 6.84413e-05)
(0 -0.00144246 8.76661e-05)
(0 -0.0010745 8.33718e-05)
(0 0 0)
(0 0 0)
(0 0 0)
(0 0 0)
(0 0 0)
(0 0 0)
(0 0 0)
(0 0 0)
(0 0 0)
(0 0 0)
(0 0 0)
(0 0 0)
(0 0 0)
(0 0 0)
(0 0 0)
(0 0 0)
(0 0 0)
(0 0 0)
(0 0 0)
(0 0 0)
(0 0 0)
(0 0 0)
(0 0 0)
(0 0 0)
(0 0 0)
(0 0 0)
(0 0 0)
(0 0 0)
(0 0 0)
(0 0 0)
(0 0 0)
(0 0 0)
(0 0 0)
(0 0 0)
(0 0 0)
(0 0 0)
(0 0 0)
(0 0 0)
(0 0 0)
(0 0 0)
(0 0 0)
(0 0 0)
(0 0 0)
(0 0 0)
(0 0 0)
(0 0 0)
(0 0 0)
(0 0 0)
(0 0 0)
(0 0 0)
(0 0 0)
(0 0 0)
(0 0 0)
(0 0 0)
(0 0 0)
(0 0 0)
(0 0 0)
(0 0 0)
(0 0 0)
(0 0 0)
(0 0 0)
(0 0 0)
(0 0 0)
(0 0 -2.54684e-211)
(0 1.28531e-16 -3.23745e-102)
(0 -8.41809e-05 -1.5268e-18)
(0 -0.0012622 1.12885e-10)
(0 -0.00117615 1.97189e-08)
(0 -0.0011149 1.23761e-06)
(0 -0.00108312 4.07812e-06)
(0 -0.00105729 4.22652e-06)
(0 -0.00122751 8.81293e-06)
(0 -0.00121514 1.28007e-05)
(0 -0.0013528 2.20964e-05)
(0 -0.00159693 3.38252e-05)
(0 -0.00129961 3.10876e-05)
(0 -0.00181428 4.94854e-05)
(0 -0.00118743 3.33139e-05)
(0 -0.00181586 5.55622e-05)
(0 -0.00170179 5.54187e-05)
(0 -0.00129745 4.4612e-05)
(0 -0.00123877 4.40344e-05)
(0 -0.00118495 4.32886e-05)
(0 -0.00170363 6.33546e-05)
(0 -0.0018188 6.82609e-05)
(0 -0.00151818 5.70235e-05)
(0 -0.0018283 6.83184e-05)
(0 -0.00125683 4.67755e-05)
(0 -0.00176372 7.44748e-05)
(0 -0.00188195 9.40104e-05)
(0 -0.00143921 6.23151e-05)
(0 -0.00130721 5.11836e-05)
(0 -0.00132277 5.44158e-05)
(0 -0.00154653 5.98484e-05)
(0 -0.00136115 4.92378e-05)
(0 -0.00153404 6.09099e-05)
(0 -0.00122133 5.35439e-05)
(0 -0.00123692 6.19742e-05)
(0 -0.00146117 8.97399e-05)
(0 -0.00155941 0.00012374)
(0 0 0)
(0 0 0)
(0 0 0)
(0 0 0)
(0 0 0)
(0 0 0)
(0 0 0)
(0 0 0)
(0 0 0)
(0 0 0)
(0 0 0)
(0 0 0)
(0 0 0)
(0 0 0)
(0 0 0)
(0 0 0)
(0 0 0)
(0 0 0)
(0 0 0)
(0 0 0)
(0 0 0)
(0 0 0)
(0 0 0)
(0 0 0)
(0 0 0)
(0 0 0)
(0 0 0)
(0 0 0)
(0 0 0)
(0 0 0)
(0 0 0)
(0 0 0)
(0 0 0)
(0 0 0)
(0 0 0)
(0 0 0)
(0 0 0)
(0 0 0)
(0 0 0)
(0 0 0)
(0 0 0)
(0 0 0)
(0 0 0)
(0 0 0)
(0 0 0)
(0 0 0)
(0 0 0)
(0 0 0)
(0 0 0)
(0 0 0)
(0 0 0)
(0 0 0)
(0 0 0)
(0 0 0)
(0 0 0)
(0 0 0)
(0 0 0)
(0 0 0)
(0 0 0)
(0 0 0)
(0 0 -6.83836e-307)
(0 2.49859e-236 -2.64626e-152)
(0 1.49996e-152 -1.20709e-105)
(0 2.12232e-73 -4.3755e-59)
(0 3.97313e-37 -3.91034e-29)
(0 -9.34377e-12 -1.52222e-18)
(0 -0.00126976 2.18804e-07)
(0 -0.00124873 9.22584e-07)
(0 -0.00112793 6.75407e-06)
(0 -0.0010358 1.47246e-05)
(0 -0.000961347 1.70512e-05)
(0 -0.00132272 2.3935e-05)
(0 -0.00121518 2.25306e-05)
(0 -0.00171975 3.5528e-05)
(0 -0.00138957 3.38431e-05)
(0 -0.00148073 3.7833e-05)
(0 -0.00167306 4.77544e-05)
(0 -0.00122813 3.65324e-05)
(0 -0.00159092 5.02171e-05)
(0 -0.00118174 3.99271e-05)
(0 -0.00181256 6.40886e-05)
(0 -0.00113594 4.17025e-05)
(0 -0.00113714 4.27583e-05)
(0 -0.00118747 4.53666e-05)
(0 -0.00136674 5.31697e-05)
(0 -0.00152059 6.03984e-05)
(0 -0.00130553 5.35752e-05)
(0 -0.00130596 5.65669e-05)
(0 -0.00124669 5.8829e-05)
(0 -0.00157277 6.89705e-05)
(0 -0.00177682 6.47329e-05)
(0 -0.00165966 6.56361e-05)
(0 -0.00169332 6.6654e-05)
(0 -0.00141005 5.47593e-05)
(0 -0.00125359 4.97339e-05)
(0 -0.0011694 5.02141e-05)
(0 -0.00142665 7.04778e-05)
(0 -0.00137722 7.58298e-05)
(0 -0.00165826 9.73933e-05)
(0 -0.0015586 9.75192e-05)
(0 0 0)
(0 0 0)
(0 0 0)
(0 0 0)
(0 0 0)
(0 0 0)
(0 0 0)
(0 0 0)
(0 0 0)
(0 0 0)
(0 0 0)
(0 0 0)
(0 0 0)
(0 0 0)
(0 0 0)
(0 0 0)
(0 0 0)
(0 0 0)
(0 0 0)
(0 0 0)
(0 0 0)
(0 0 0)
(0 0 0)
(0 0 0)
(0 0 0)
(0 0 0)
(0 0 0)
(0 0 0)
(0 0 0)
(0 0 0)
(0 0 0)
(0 0 0)
(0 0 0)
(0 0 0)
(0 0 0)
(0 0 0)
(0 0 0)
(0 0 0)
(0 0 0)
(0 0 0)
(0 0 0)
(0 0 0)
(0 0 0)
(0 0 0)
(0 0 0)
(0 0 0)
(0 0 0)
(0 0 0)
(0 0 0)
(0 0 0)
(0 0 0)
(0 0 0)
(0 0 0)
(0 0 0)
(0 0 0)
(0 0 0)
(0 0 0)
(0 0 0)
(0 0 0)
(0 3.11656e-219 -9.44704e-207)
(0 2.49778e-108 -5.7023e-88)
(0 1.13688e-74 -2.75543e-44)
(0 4.52595e-45 -2.76084e-31)
(0 1.47228e-21 -2.50659e-14)
(0 1.13243e-16 -6.84144e-08)
(0 1.31538e-14 -7.19873e-06)
(0 -2.16297e-08 -0.000126307)
(0 -0.000670709 -0.000579963)
(0 -0.000929437 -0.000294828)
(0 -0.000906424 -0.000114926)
(0 -0.000931129 1.45848e-05)
(0 -0.00102742 2.60138e-05)
(0 -0.00128236 3.91652e-05)
(0 -0.00129303 3.89159e-05)
(0 -0.00167633 5.50153e-05)
(0 -0.00113716 3.74032e-05)
(0 -0.00175411 5.77535e-05)
(0 -0.00121531 4.14358e-05)
(0 -0.00122406 4.27573e-05)
(0 -0.00158854 5.82131e-05)
(0 -0.0012912 4.80843e-05)
(0 -0.00159701 6.1368e-05)
(0 -0.00181183 7.08745e-05)
(0 -0.0011835 4.70327e-05)
(0 -0.00118439 4.78232e-05)
(0 -0.00113566 4.70098e-05)
(0 -0.00113714 4.96357e-05)
(0 -0.00125006 6.17681e-05)
(0 -0.00121286 5.50979e-05)
(0 -0.00127973 4.04489e-05)
(0 -0.00196644 6.97316e-05)
(0 -0.00171736 6.41937e-05)
(0 -0.00131153 5.10624e-05)
(0 -0.00133082 5.79755e-05)
(0 -0.00129223 5.72496e-05)
(0 -0.00137157 6.75263e-05)
(0 -0.00139241 7.40293e-05)
(0 -0.00134236 7.97177e-05)
(0 -0.00129079 7.78456e-05)
(0 -0.00117387 7.22066e-05)
(0 0 0)
(0 0 0)
(0 0 0)
(0 0 0)
(0 0 0)
(0 0 0)
(0 0 0)
(0 0 0)
(0 0 0)
(0 0 0)
(0 0 0)
(0 0 0)
(0 0 0)
(0 0 0)
(0 0 0)
(0 0 0)
(0 0 0)
(0 0 0)
(0 0 0)
(0 0 0)
(0 0 0)
(0 0 0)
(0 0 0)
(0 0 0)
(0 0 0)
(0 0 0)
(0 0 0)
(0 0 0)
(0 0 0)
(0 0 0)
(0 0 0)
(0 0 0)
(0 0 0)
(0 0 0)
(0 0 0)
(0 0 0)
(0 0 0)
(0 0 0)
(0 0 0)
(0 0 0)
(0 0 0)
(0 0 0)
(0 0 0)
(0 0 0)
(0 0 0)
(0 0 0)
(0 0 0)
(0 0 0)
(0 0 0)
(0 0 0)
(0 0 0)
(0 0 0)
(0 0 0)
(0 0 0)
(0 0 0)
(0 0 0)
(0 0 0)
(0 0 0)
(0 5.40308e-152 0)
(0 1.29674e-64 -4.54877e-55)
(0 1.96292e-32 -1.14634e-23)
(0 2.18548e-23 -3.67039e-12)
(0 -9.57448e-11 -3.30055e-08)
(0 -4.29022e-06 -0.00126592)
(0 -4.50772e-07 -0.0012322)
(0 -2.44655e-06 -0.00103727)
(0 -0.000694509 -0.000346923)
(0 -0.00107224 -8.80303e-06)
(0 -0.000936067 -9.74856e-07)
(0 -0.000971327 -2.39342e-06)
(0 -0.00114117 9.31597e-06)
(0 -0.00171316 2.32154e-05)
(0 -0.00174303 4.1483e-05)
(0 -0.00127113 3.83309e-05)
(0 -0.00157581 5.14283e-05)
(0 -0.00158381 5.60647e-05)
(0 -0.00118022 4.09524e-05)
(0 -0.00123801 4.44463e-05)
(0 -0.00118668 4.34494e-05)
(0 -0.00181769 6.80902e-05)
(0 -0.00118786 4.52207e-05)
(0 -0.00170692 6.6363e-05)
(0 -0.00113896 4.50636e-05)
(0 -0.00143889 5.79887e-05)
(0 -0.00170892 6.95571e-05)
(0 -0.00118769 4.86476e-05)
(0 -0.0015108 6.22578e-05)
(0 -0.00148208 6.1943e-05)
(0 -0.00156332 6.57482e-05)
(0 -0.00187103 8.52131e-05)
(0 -0.00213047 8.58979e-05)
(0 -0.0014531 5.59363e-05)
(0 -0.00135657 5.66713e-05)
(0 -0.00187972 7.72595e-05)
(0 -0.00127499 5.45378e-05)
(0 -0.00148446 6.53693e-05)
(0 -0.00159513 7.32973e-05)
(0 -0.00173312 9.36154e-05)
(0 -0.00165643 9.34408e-05)
(0 -0.00138171 8.8544e-05)
(0 0 0)
(0 0 0)
(0 0 0)
(0 0 0)
(0 0 0)
(0 0 0)
(0 0 0)
(0 0 0)
(0 0 0)
(0 0 0)
(0 0 0)
(0 0 0)
(0 0 0)
(0 0 0)
(0 0 0)
(0 0 0)
(0 0 0)
(0 0 0)
(0 0 0)
(0 0 0)
(0 0 0)
(0 0 0)
(0 0 0)
(0 0 0)
(0 0 0)
(0 0 0)
(0 0 0)
(0 0 0)
(0 0 0)
(0 0 0)
(0 0 0)
(0 0 0)
(0 0 0)
(0 0 0)
(0 0 0)
(0 0 0)
(0 0 0)
(0 0 0)
(0 0 0)
(0 0 0)
(0 0 0)
(0 0 0)
(0 0 0)
(0 0 0)
(0 0 0)
(0 0 0)
(0 0 0)
(0 0 0)
(0 0 0)
(0 0 0)
(0 0 0)
(0 0 0)
(0 0 0)
(0 0 0)
(0 0 0)
(0 0 0)
(0 0 0)
(0 0 0)
(0 3.82111e-42 -1.95422e-44)
(0 1.26968e-18 -3.10079e-13)
(0 -1.19985e-08 -2.27291e-05)
(0 -1.0834e-06 -0.00126606)
(0 -0.000741045 -0.000499127)
(0 -0.000183772 -0.00107517)
(0 -0.000157815 -0.000829679)
(0 -0.000182952 -0.000533058)
(0 -0.000230921 -0.000376787)
(0 -0.000293814 -0.000201992)
(0 -0.000592989 -4.65564e-05)
(0 -0.000822081 7.43522e-06)
(0 -0.00134617 3.33563e-05)
(0 -0.00108839 3.0667e-05)
(0 -0.00120538 3.82811e-05)
(0 -0.00136181 4.5034e-05)
(0 -0.00138293 4.49686e-05)
(0 -0.00184599 5.90543e-05)
(0 -0.00154426 4.92089e-05)
(0 -0.00146451 4.91821e-05)
(0 -0.00132689 4.55853e-05)
(0 -0.00173839 6.02149e-05)
(0 -0.00139113 4.93346e-05)
(0 -0.0012641 4.61623e-05)
(0 -0.0011579 4.30613e-05)
(0 -0.0014604 5.53006e-05)
(0 -0.00120479 4.59889e-05)
(0 -0.00138364 5.23942e-05)
(0 -0.00138329 4.99254e-05)
(0 -0.00132594 3.98006e-05)
(0 -0.00189132 6.60357e-05)
(0 -0.00122955 6.24802e-05)
(0 -0.00211437 8.52089e-05)
(0 -0.00148604 6.41474e-05)
(0 -0.00167167 7.22573e-05)
(0 -0.00127288 5.20562e-05)
(0 -0.00123351 5.77376e-05)
(0 -0.00124737 5.60727e-05)
(0 -0.00115304 5.25332e-05)
(0 -0.00149561 8.11477e-05)
(0 -0.00117571 6.87802e-05)
(0 -0.00123471 7.95072e-05)
(0 0 0)
(0 0 0)
(0 0 0)
(0 0 0)
(0 0 0)
(0 0 0)
(0 0 0)
(0 0 0)
(0 0 0)
(0 0 0)
(0 0 0)
(0 0 0)
(0 0 0)
(0 0 0)
(0 0 0)
(0 0 0)
(0 0 0)
(0 0 0)
(0 0 0)
(0 0 0)
(0 0 0)
(0 0 0)
(0 0 0)
(0 0 0)
(0 0 0)
(0 0 0)
(0 0 0)
(0 0 0)
(0 0 0)
(0 0 0)
(0 0 0)
(0 0 0)
(0 0 0)
(0 0 0)
(0 0 0)
(0 0 0)
(0 0 0)
(0 0 0)
(0 0 0)
(0 0 0)
(0 0 0)
(0 0 0)
(0 0 0)
(0 0 0)
(0 0 0)
(0 0 0)
(0 0 0)
(0 0 0)
(0 0 0)
(0 0 0)
(0 0 0)
(0 0 0)
(0 0 0)
(0 0 0)
(0 0 0)
(0 0 0)
(0 0 0)
(0 4.1353e-35 0)
(0 -1.22918e-09 -1.95422e-44)
(0 -0.00127026 -6.29936e-15)
(0 -0.00126712 -1.13066e-10)
(0 -0.00126677 -1.63657e-08)
(0 -0.00127283 -7.26952e-08)
(0 -0.00175164 -1.43485e-05)
(0 -0.0016173 -3.0111e-05)
(0 -0.00186092 -3.92116e-05)
(0 -0.00246533 -3.83529e-05)
(0 -0.00228258 -2.67459e-05)
(0 -0.00248635 -9.32803e-06)
(0 -0.0022466 7.38167e-07)
(0 -0.00269534 7.20107e-06)
(0 -0.00236726 1.24126e-05)
(0 -0.00264142 1.9884e-05)
(0 -0.00217282 1.77013e-05)
(0 -0.00226766 1.87534e-05)
(0 -0.00190868 1.49462e-05)
(0 -0.00157763 1.24283e-05)
(0 -0.00207599 1.81111e-05)
(0 -0.00205477 1.89771e-05)
(0 -0.00183139 1.72652e-05)
(0 -0.00157735 1.55561e-05)
(0 -0.00211027 2.20894e-05)
(0 -0.00148006 1.60326e-05)
(0 -0.001673 1.87734e-05)
(0 -0.00182933 2.1078e-05)
(0 -0.00180994 2.11347e-05)
(0 -0.00162074 1.8886e-05)
(0 -0.00187201 2.21608e-05)
(0 -0.00145224 2.17457e-05)
(0 -0.00154099 1.74211e-05)
(0 -0.00211816 2.16773e-05)
(0 -0.00246921 3.42071e-05)
(0 -0.00178429 2.39963e-05)
(0 -0.00155048 2.27659e-05)
(0 -0.00190262 3.3767e-05)
(0 -0.00140534 2.43144e-05)
(0 -0.00127101 2.37061e-05)
(0 -0.00181763 4.22946e-05)
(0 -0.00159785 4.58096e-05)
(0 -0.00130624 4.30099e-05)
)
;

boundaryField
{
    inlet
    {
        type            fixedValue;
        value           uniform (0 -0.0005 0);
    }
    outlet
    {
        type            fluxCorrectedVelocity;
        phi             phi.gas;
        rho             rho.gas;
        value           uniform (0 0 0);
    }
    walls
    {
        type            fixedValue;
        value           uniform (0 0 0);
    }
}


// ************************************************************************* //
