/*--------------------------------*- C++ -*----------------------------------*\
| =========                 |                                                 |
| \\      /  F ield         | foam-extend: Open Source CFD                    |
|  \\    /   O peration     | Version:     5.0                                |
|   \\  /    A nd           | Web:         http://www.foam-extend.org         |
|    \\/     M anipulation  |                                                 |
\*---------------------------------------------------------------------------*/
FoamFile
{
    version     2.0;
    format      ascii;
    class       volVectorField;
    location    "2000";
    object      U.oil;
}
// * * * * * * * * * * * * * * * * * * * * * * * * * * * * * * * * * * * * * //

dimensions      [0 1 -1 0 0 0 0];

internalField   nonuniform List<vector> 
1000
(
(0 -0.000479314 -5.62937e-06)
(0 -0.000470584 -3.09995e-06)
(0 -0.000602484 -2.49592e-06)
(0 -0.000535337 -1.49445e-06)
(0 -0.000595483 -1.16414e-06)
(0 -0.000630582 -8.81448e-07)
(0 -0.000671003 -6.78194e-07)
(0 -0.000502374 -3.6935e-07)
(0 -0.000668981 -3.58926e-07)
(0 -0.000626587 -2.45753e-07)
(0 -0.000417441 -1.19794e-07)
(0 -0.000455164 -9.56159e-08)
(0 -0.000417082 -6.41519e-08)
(0 -0.000416971 -4.69645e-08)
(0 -0.000435015 -3.58811e-08)
(0 -0.000666928 -4.02854e-08)
(0 -0.000588404 -2.60289e-08)
(0 -0.000416754 -1.35014e-08)
(0 -0.000500077 -1.18649e-08)
(0 -0.000434832 -7.55607e-09)
(0 -0.000416701 -5.3038e-09)
(0 -0.000526348 -4.90793e-09)
(0 -0.00055558 -3.79643e-09)
(0 -0.000476206 -2.3861e-09)
(0 -0.000555569 -2.04354e-09)
(0 -0.000588246 -1.5917e-09)
(0 -0.000526323 -1.0517e-09)
(0 -0.00045455 -6.75532e-10)
(0 -0.000454549 -5.08926e-10)
(0 -0.00066667 -5.75197e-10)
(0 -0.000666669 -4.60364e-10)
(0 -0.000454546 -2.66393e-10)
(0 -0.000526316 -2.83769e-10)
(0 -0.000526316 -2.86987e-10)
(0 -0.000588235 -3.55903e-10)
(0 -0.000454544 -3.29228e-10)
(0 -0.000416665 -3.81147e-10)
(0 -0.00043478 -5.19575e-10)
(0 -0.000624994 -9.95323e-10)
(0 -0.000499994 -1.07305e-09)
(0 -0.000416659 -1.21243e-09)
(0 -0.000499988 -1.97916e-09)
(0 -0.000416652 -2.24741e-09)
(0 -0.000588208 -4.32716e-09)
(0 -0.000434755 -4.36364e-09)
(0 -0.000454506 -6.22483e-09)
(0 -0.000666587 -1.24567e-08)
(0 -0.000499918 -1.27445e-08)
(0 -0.000454443 -1.57993e-08)
(0 -0.000588055 -2.78681e-08)
(0 -0.000475991 -3.07274e-08)
(0 -0.000499715 -4.39008e-08)
(0 -0.000454192 -5.4229e-08)
(0 -0.00049947 -8.0895e-08)
(0 -0.000587388 -1.28704e-07)
(0 -0.00047526 -1.40348e-07)
(0 -0.000664905 -2.63221e-07)
(0 -0.000498219 -2.62434e-07)
(0 -0.000585425 -4.06097e-07)
(0 -0.000621023 -5.5947e-07)
(0 -0.000619751 -7.11968e-07)
(0 -0.000549471 -7.86554e-07)
(0 -0.000410801 -7.12564e-07)
(0 -0.000516954 -1.05164e-06)
(0 -0.000543319 -1.24516e-06)
(0 -0.000423211 -1.02001e-06)
(0 -0.000538385 -1.08148e-06)
(0 -0.000460421 -1.25081e-07)
(0 -0.000536369 -6.42582e-07)
(0 -0.000531189 -4.5338e-06)
(0 -0.000548539 -9.08235e-06)
(0 -0.000427848 -8.60252e-06)
(0 -0.000537985 -1.12675e-05)
(0 -0.000430679 -7.99733e-06)
(0 -0.000407233 -3.91292e-06)
(0 -0.000384766 -1.62732e-06)
(0 -0.000389462 -1.29143e-06)
(0 -0.000379176 -1.36448e-06)
(0 -0.000419379 -1.64996e-06)
(0 -0.000315444 -1.25798e-06)
(0 -0.000345384 -1.37845e-06)
(0 -0.000343104 -1.36898e-06)
(0 -0.000341328 -1.35418e-06)
(0 -0.000403538 -1.61426e-06)
(0 -0.000378204 -1.59387e-06)
(0 -0.000304806 -1.43892e-06)
(0 -0.000397638 -2.33376e-06)
(0 -0.000273296 -2.28903e-06)
(0 -0.000286016 -9.08994e-07)
(0 -0.000250199 2.26275e-06)
(0 -0.00031799 -5.68524e-08)
(0 -0.00021098 2.45168e-07)
(0 -0.000150669 8.5193e-07)
(0 -0.00015632 3.9728e-07)
(0 -0.000141789 -2.00187e-08)
(0 -9.91675e-05 1.14038e-07)
(0 -7.34424e-05 3.4104e-07)
(0 -4.93103e-05 3.12497e-07)
(0 -4.73414e-05 -3.26059e-07)
(0 -1.84911e-05 -3.75917e-07)
(0 -0.000646534 -1.76549e-05)
(0 -0.000466884 -7.94172e-06)
(0 -0.000566801 -6.41998e-06)
(0 -0.000534145 -4.19747e-06)
(0 -0.000421205 -2.35225e-06)
(0 -0.000419988 -1.68969e-06)
(0 -0.000628645 -1.83589e-06)
(0 -0.000418446 -8.90757e-07)
(0 -0.000501563 -7.80016e-07)
(0 -0.00052752 -6.00066e-07)
(0 -0.000589221 -4.90561e-07)
(0 -0.000526962 -3.21209e-07)
(0 -0.000476619 -2.12735e-07)
(0 -0.000588623 -1.92396e-07)
(0 -0.000588519 -1.40871e-07)
(0 -0.000434936 -7.62418e-08)
(0 -0.000666839 -8.56043e-08)
(0 -0.000500095 -4.7015e-08)
(0 -0.000526389 -3.62417e-08)
(0 -0.000454592 -2.29225e-08)
(0 -0.000555597 -2.05199e-08)
(0 -0.000476217 -1.28846e-08)
(0 -0.000588259 -1.16634e-08)
(0 -0.000526331 -7.65189e-09)
(0 -0.000526327 -5.61711e-09)
(0 -0.000500008 -3.92553e-09)
(0 -0.000476196 -2.76101e-09)
(0 -0.00055556 -2.39602e-09)
(0 -0.000476193 -1.54755e-09)
(0 -0.00066667 -1.67011e-09)
(0 -0.000434784 -8.72141e-10)
(0 -0.000625001 -1.06456e-09)
(0 -0.000555556 -8.7095e-10)
(0 -0.000555556 -8.81067e-10)
(0 -0.000526315 -9.26176e-10)
(0 -0.000416666 -8.77567e-10)
(0 -0.000526314 -1.39952e-09)
(0 -0.000416664 -1.44692e-09)
(0 -0.000454542 -2.10284e-09)
(0 -0.00052631 -3.28043e-09)
(0 -0.00041666 -3.52055e-09)
(0 -0.000499989 -5.7461e-09)
(0 -0.000454532 -7.11746e-09)
(0 -0.000454526 -9.70645e-09)
(0 -0.000588201 -1.71377e-08)
(0 -0.00049996 -1.9877e-08)
(0 -0.000624932 -3.39023e-08)
(0 -0.000666568 -4.93347e-08)
(0 -0.000666532 -6.72856e-08)
(0 -0.00052617 -7.2417e-08)
(0 -0.000499811 -9.37294e-08)
(0 -0.000454311 -1.15989e-07)
(0 -0.000666197 -2.31283e-07)
(0 -0.000416267 -1.96186e-07)
(0 -0.000453951 -2.89755e-07)
(0 -0.00043401 -3.73924e-07)
(0 -0.000498794 -5.77278e-07)
(0 -0.000553741 -8.55074e-07)
(0 -0.00041483 -8.46583e-07)
(0 -0.000414202 -1.1026e-06)
(0 -0.000496061 -1.69239e-06)
(0 -0.000618511 -2.64355e-06)
(0 -0.000580296 -3.02167e-06)
(0 -0.000517234 -3.17848e-06)
(0 -0.000465867 -3.26776e-06)
(0 -0.000648726 -5.03024e-06)
(0 -0.000420032 -3.49941e-06)
(0 -0.000595739 -5.21342e-06)
(0 -0.000546124 -5.00956e-06)
(0 -0.000525032 -7.11635e-06)
(0 -0.000420599 -1.31649e-05)
(0 -0.000376148 -1.8153e-05)
(0 -0.000311773 -1.69834e-05)
(0 -0.000360235 -1.91462e-05)
(0 -0.00041097 -1.42948e-05)
(0 -0.000451803 -9.95318e-06)
(0 -0.000439843 -7.30026e-06)
(0 -0.000323035 -4.45825e-06)
(0 -0.000374461 -4.98775e-06)
(0 -0.000262254 -3.28896e-06)
(0 -0.000390259 -4.71614e-06)
(0 -0.00034503 -3.99124e-06)
(0 -0.000257748 -2.87579e-06)
(0 -0.000385502 -4.27937e-06)
(0 -0.00038459 -4.42787e-06)
(0 -0.00025589 -3.258e-06)
(0 -0.000322643 -4.91086e-06)
(0 -0.000339924 -6.56029e-06)
(0 -0.000377738 -1.53379e-06)
(0 -0.000256072 4.08363e-06)
(0 -0.000204847 2.32549e-06)
(0 -0.000156917 1.28337e-06)
(0 -0.000185928 4.97729e-07)
(0 -0.00018218 -7.20486e-07)
(0 -0.000128489 -7.41422e-07)
(0 -9.35217e-05 -5.01465e-07)
(0 -8.62458e-05 -6.25207e-07)
(0 -6.84515e-05 -2.73394e-07)
(0 -4.96219e-05 -1.48945e-06)
(0 -1.8341e-05 -1.10178e-06)
(0 -0.000486538 -1.5668e-05)
(0 -0.000485045 -1.10778e-05)
(0 -0.000676484 -1.10226e-05)
(0 -0.000594841 -6.97645e-06)
(0 -0.000420167 -3.57172e-06)
(0 -0.000479154 -2.96564e-06)
(0 -0.000478375 -2.1616e-06)
(0 -0.000501685 -1.65755e-06)
(0 -0.000501237 -1.2119e-06)
(0 -0.000589302 -1.04312e-06)
(0 -0.00045515 -5.89946e-07)
(0 -0.000417072 -3.95886e-07)
(0 -0.000588655 -4.09198e-07)
(0 -0.000526591 -2.68078e-07)
(0 -0.000625239 -2.33101e-07)
(0 -0.000555711 -1.51724e-07)
(0 -0.000526424 -1.05255e-07)
(0 -0.000555639 -8.13587e-08)
(0 -0.000526374 -5.64438e-08)
(0 -0.000476229 -3.73995e-08)
(0 -0.000555589 -3.19573e-08)
(0 -0.000500022 -2.10691e-08)
(0 -0.000476206 -1.47039e-08)
(0 -0.000476202 -1.07815e-08)
(0 -0.000416674 -6.92513e-09)
(0 -0.000434788 -5.31592e-09)
(0 -0.000588241 -5.31171e-09)
(0 -0.000526319 -3.53543e-09)
(0 -0.00066667 -3.37495e-09)
(0 -0.000588237 -2.29603e-09)
(0 -0.000416668 -1.30263e-09)
(0 -0.000476191 -1.26456e-09)
(0 -0.000476191 -1.16425e-09)
(0 -0.000476191 -1.17799e-09)
(0 -0.000434782 -1.19343e-09)
(0 -0.000624999 -2.05297e-09)
(0 -0.000555554 -2.30344e-09)
(0 -0.000476188 -2.57784e-09)
(0 -0.000416664 -3.00436e-09)
(0 -0.000555551 -5.3961e-09)
(0 -0.000666658 -8.77708e-09)
(0 -0.000454538 -8.13897e-09)
(0 -0.000666651 -1.62642e-08)
(0 -0.000416653 -1.38627e-08)
(0 -0.000454525 -2.06335e-08)
(0 -0.000588198 -3.64386e-08)
(0 -0.000555508 -4.69635e-08)
(0 -0.000476134 -5.49276e-08)
(0 -0.000476114 -7.49337e-08)
(0 -0.000555433 -1.19226e-07)
(0 -0.000588058 -1.72082e-07)
(0 -0.000624743 -2.4907e-07)
(0 -0.00052602 -2.85459e-07)
(0 -0.000475824 -3.5105e-07)
(0 -0.000434326 -4.34857e-07)
(0 -0.000453893 -6.15157e-07)
(0 -0.000623773 -1.14014e-06)
(0 -0.000664876 -1.6302e-06)
(0 -0.00066422 -2.16763e-06)
(0 -0.000497495 -2.13661e-06)
(0 -0.000620741 -3.45254e-06)
(0 -0.000660533 -4.65418e-06)
(0 -0.000548739 -4.76024e-06)
(0 -0.000578787 -5.97598e-06)
(0 -0.000445218 -5.28339e-06)
(0 -0.000423727 -5.61932e-06)
(0 -0.000538832 -7.97411e-06)
(0 -0.000509127 -8.70897e-06)
(0 -0.000536231 -8.94061e-06)
(0 -0.000430309 -8.42652e-06)
(0 -0.000372089 -1.14995e-05)
(0 -0.000433648 -1.75512e-05)
(0 -0.000479072 -2.17166e-05)
(0 -0.000299537 -1.31473e-05)
(0 -0.000326405 -1.29096e-05)
(0 -0.00028792 -8.90638e-06)
(0 -0.00029318 -7.54456e-06)
(0 -0.000422809 -8.90509e-06)
(0 -0.000313099 -5.87354e-06)
(0 -0.000281656 -4.81561e-06)
(0 -0.000256285 -4.12768e-06)
(0 -0.00025511 -3.92166e-06)
(0 -0.000339295 -4.9835e-06)
(0 -0.000254145 -3.64677e-06)
(0 -0.000290314 -4.23822e-06)
(0 -0.000320901 -5.05666e-06)
(0 -0.00027724 -5.05331e-06)
(0 -0.000253799 -5.56425e-06)
(0 -0.0002815 -1.30735e-06)
(0 -0.000225563 4.66218e-06)
(0 -0.000317276 6.24657e-06)
(0 -0.000237409 2.29486e-06)
(0 -0.000178866 -1.56128e-06)
(0 -0.000160347 -1.98287e-06)
(0 -0.000145115 -1.43319e-06)
(0 -0.000114818 -1.14415e-06)
(0 -7.00114e-05 -5.08812e-07)
(0 -7.76785e-05 -9.62838e-07)
(0 -4.25506e-05 -6.65935e-07)
(0 -1.70232e-05 -5.55003e-07)
(0 -0.0005623 -1.91793e-05)
(0 -0.000561542 -1.45251e-05)
(0 -0.000420349 -8.10666e-06)
(0 -0.000457688 -6.52668e-06)
(0 -0.000558478 -5.86405e-06)
(0 -0.000557743 -4.30258e-06)
(0 -0.000527853 -2.98792e-06)
(0 -0.000455525 -1.89065e-06)
(0 -0.000455265 -1.38488e-06)
(0 -0.000526928 -1.17443e-06)
(0 -0.000625533 -1.02134e-06)
(0 -0.000555903 -6.64831e-07)
(0 -0.000476409 -4.173e-07)
(0 -0.00047635 -3.05582e-07)
(0 -0.000526445 -2.47326e-07)
(0 -0.000625113 -2.1507e-07)
(0 -0.000500066 -1.25993e-07)
(0 -0.000588292 -1.08546e-07)
(0 -0.000588277 -7.94889e-08)
(0 -0.000625033 -6.18516e-08)
(0 -0.000434799 -3.15137e-08)
(0 -0.000588252 -3.12328e-08)
(0 -0.0004762 -1.85275e-08)
(0 -0.000416673 -1.18869e-08)
(0 -0.000555562 -1.16345e-08)
(0 -0.000476195 -7.33617e-09)
(0 -0.000588239 -6.69303e-09)
(0 -0.00066667 -5.64289e-09)
(0 -0.000454547 -2.89967e-09)
(0 -0.000454547 -2.23584e-09)
(0 -0.000588236 -2.31768e-09)
(0 -0.000666668 -2.23138e-09)
(0 -0.000454546 -1.40083e-09)
(0 -0.000666667 -2.07888e-09)
(0 -0.000588235 -2.03533e-09)
(0 -0.000555555 -2.30026e-09)
(0 -0.000499999 -2.61303e-09)
(0 -0.000624998 -4.26443e-09)
(0 -0.000666664 -6.05849e-09)
(0 -0.00043478 -5.32242e-09)
(0 -0.000476187 -7.90143e-09)
(0 -0.000624993 -1.41047e-08)
(0 -0.000454539 -1.39768e-08)
(0 -0.000434773 -1.82334e-08)
(0 -0.000624982 -3.57646e-08)
(0 -0.000434765 -3.39563e-08)
(0 -0.000588203 -6.27054e-08)
(0 -0.000499962 -7.27473e-08)
(0 -0.000499948 -9.92802e-08)
(0 -0.000416608 -1.12888e-07)
(0 -0.000666537 -2.46387e-07)
(0 -0.000454424 -2.29074e-07)
(0 -0.000499817 -3.43425e-07)
(0 -0.000434564 -4.06708e-07)
(0 -0.000434482 -5.53337e-07)
(0 -0.000587675 -1.01704e-06)
(0 -0.000453945 -1.06532e-06)
(0 -0.00066544 -2.11094e-06)
(0 -0.000554122 -2.36415e-06)
(0 -0.000586093 -3.33597e-06)
(0 -0.000585195 -4.38646e-06)
(0 -0.000472697 -4.57281e-06)
(0 -0.000659788 -7.99765e-06)
(0 -0.000616125 -9.00355e-06)
(0 -0.000516362 -8.70941e-06)
(0 -0.000609889 -1.13577e-05)
(0 -0.000422018 -8.24408e-06)
(0 -0.000537058 -1.02336e-05)
(0 -0.000435276 -1.05008e-05)
(0 -0.000440645 -1.70848e-05)
(0 -0.00058313 -2.61205e-05)
(0 -0.000505559 -1.95773e-05)
(0 -0.000417214 -1.48607e-05)
(0 -0.000474691 -1.35878e-05)
(0 -0.000295531 -7.81089e-06)
(0 -0.000365119 -8.86611e-06)
(0 -0.000266903 -5.89571e-06)
(0 -0.000370293 -7.99513e-06)
(0 -0.000345702 -6.57679e-06)
(0 -0.000324537 -5.70385e-06)
(0 -0.000383054 -6.3843e-06)
(0 -0.000290645 -4.63509e-06)
(0 -0.000276775 -4.24161e-06)
(0 -0.000289774 -4.30934e-06)
(0 -0.000304436 -4.54119e-06)
(0 -0.000254106 -3.96411e-06)
(0 -0.000277953 -4.84089e-06)
(0 -0.000255634 -5.45066e-06)
(0 -0.00026034 -3.18506e-06)
(0 -0.00026723 6.30285e-06)
(0 -0.000312227 3.82192e-06)
(0 -0.000285881 1.78939e-07)
(0 -0.000146088 -6.37114e-07)
(0 -0.000130518 -9.99798e-07)
(0 -0.000134188 -1.48225e-06)
(0 -8.8609e-05 -7.20128e-07)
(0 -0.000104941 -5.86084e-07)
(0 -6.66389e-05 -5.13872e-07)
(0 -4.87818e-05 5.17409e-07)
(0 -1.68681e-05 7.42477e-07)
(0 -0.000501959 -1.75427e-05)
(0 -0.000501763 -1.36695e-05)
(0 -0.000436061 -9.03745e-06)
(0 -0.000477299 -7.4112e-06)
(0 -0.000477042 -5.49797e-06)
(0 -0.000500673 -4.25919e-06)
(0 -0.000556112 -3.48042e-06)
(0 -0.00050037 -2.29942e-06)
(0 -0.00043502 -1.46624e-06)
(0 -0.000555778 -1.37303e-06)
(0 -0.000454679 -8.22996e-07)
(0 -0.000588362 -7.80108e-07)
(0 -0.000666772 -6.47511e-07)
(0 -0.000625073 -4.44556e-07)
(0 -0.000526361 -2.74148e-07)
(0 -0.000625039 -2.38399e-07)
(0 -0.00052634 -1.47012e-07)
(0 -0.000416681 -8.52277e-08)
(0 -0.000454557 -6.8087e-08)
(0 -0.000555566 -6.09439e-08)
(0 -0.000588243 -4.72617e-08)
(0 -0.000625006 -3.67849e-08)
(0 -0.00058824 -2.53696e-08)
(0 -0.000476193 -1.50586e-08)
(0 -0.000625003 -1.45086e-08)
(0 -0.000526318 -8.98796e-09)
(0 -0.000476192 -6.00592e-09)
(0 -0.000500001 -4.69132e-09)
(0 -0.000588236 -4.15971e-09)
(0 -0.000625001 -3.40799e-09)
(0 -0.000434783 -1.89911e-09)
(0 -0.000625001 -2.31925e-09)
(0 -0.0005 -1.70847e-09)
(0 -0.0005 -1.72875e-09)
(0 -0.000416667 -1.59852e-09)
(0 -0.000666667 -3.06054e-09)
(0 -0.000625 -3.62148e-09)
(0 -0.000555555 -4.20273e-09)
(0 -0.000666666 -6.71713e-09)
(0 -0.000454545 -6.16926e-09)
(0 -0.000555554 -1.02206e-08)
(0 -0.000434781 -1.08791e-08)
(0 -0.000416665 -1.42064e-08)
(0 -0.000526312 -2.4476e-08)
(0 -0.00055555 -3.52573e-08)
(0 -0.000526309 -4.55945e-08)
(0 -0.000526306 -6.22465e-08)
(0 -0.000454534 -7.33957e-08)
(0 -0.000588214 -1.29679e-07)
(0 -0.000666634 -2.00652e-07)
(0 -0.000476158 -1.95663e-07)
(0 -0.00058818 -3.29945e-07)
(0 -0.000454486 -3.48015e-07)
(0 -0.000624886 -6.53117e-07)
(0 -0.000555413 -7.92301e-07)
(0 -0.000476017 -9.26721e-07)
(0 -0.000624671 -1.65951e-06)
(0 -0.000624517 -2.26324e-06)
(0 -0.000454015 -2.2422e-06)
(0 -0.000665461 -4.46596e-06)
(0 -0.000524799 -4.75254e-06)
(0 -0.000622087 -7.48553e-06)
(0 -0.000496267 -7.70445e-06)
(0 -0.000549161 -1.05107e-05)
(0 -0.000614529 -1.37438e-05)
(0 -0.000488492 -1.21293e-05)
(0 -0.000440581 -1.17072e-05)
(0 -0.000398455 -1.11755e-05)
(0 -0.000626344 -1.90159e-05)
(0 -0.000476967 -1.61493e-05)
(0 -0.000367308 -1.3703e-05)
(0 -0.000372277 -1.29228e-05)
(0 -0.000332657 -1.07217e-05)
(0 -0.000348048 -9.66266e-06)
(0 -0.000395094 -9.49944e-06)
(0 -0.000310326 -7.31499e-06)
(0 -0.00042528 -9.10097e-06)
(0 -0.000272577 -5.97304e-06)
(0 -0.000412961 -8.23247e-06)
(0 -0.000384188 -7.08267e-06)
(0 -0.000290984 -4.92297e-06)
(0 -0.000276696 -4.41646e-06)
(0 -0.000264163 -3.99646e-06)
(0 -0.000379669 -5.5215e-06)
(0 -0.000405388 -5.74817e-06)
(0 -0.000338572 -4.75883e-06)
(0 -0.000408007 -5.72697e-06)
(0 -0.000280843 -3.85951e-06)
(0 -0.000389782 -2.75713e-06)
(0 -0.000382814 3.48917e-06)
(0 -0.000244839 1.42505e-06)
(0 -0.000179796 4.26328e-07)
(0 -0.000150855 5.32214e-07)
(0 -0.000152267 -7.80196e-07)
(0 -0.000113918 -1.36986e-06)
(0 -0.00010929 -1.10274e-06)
(0 -6.93631e-05 -5.91663e-07)
(0 -5.16786e-05 -1.34615e-07)
(0 -4.03951e-05 5.78869e-07)
(0 -1.95731e-05 1.41561e-06)
(0 -0.000622553 -2.19284e-05)
(0 -0.000553598 -1.51883e-05)
(0 -0.00045321 -9.44825e-06)
(0 -0.000453488 -7.07433e-06)
(0 -0.000554564 -6.41429e-06)
(0 -0.000525609 -4.48335e-06)
(0 -0.000434348 -2.7238e-06)
(0 -0.000587801 -2.7052e-06)
(0 -0.000454298 -1.53288e-06)
(0 -0.000434609 -1.07454e-06)
(0 -0.000454413 -8.22995e-07)
(0 -0.000624866 -8.28864e-07)
(0 -0.000476116 -4.62507e-07)
(0 -0.000588168 -4.18404e-07)
(0 -0.000454507 -2.36763e-07)
(0 -0.000454518 -1.7338e-07)
(0 -0.000624972 -1.74575e-07)
(0 -0.000666645 -1.36363e-07)
(0 -0.000526303 -7.88366e-08)
(0 -0.000454538 -4.98623e-08)
(0 -0.000416662 -3.34763e-08)
(0 -0.000476186 -2.80258e-08)
(0 -0.000526312 -2.26984e-08)
(0 -0.000555553 -1.75678e-08)
(0 -0.000499998 -1.16064e-08)
(0 -0.000624999 -1.06727e-08)
(0 -0.000454545 -5.73267e-09)
(0 -0.0005 -4.69114e-09)
(0 -0.000555555 -3.92853e-09)
(0 -0.000588235 -3.20755e-09)
(0 -0.000588235 -2.56954e-09)
(0 -0.000526316 -1.95329e-09)
(0 -0.000526316 -1.79871e-09)
(0 -0.000555556 -1.92126e-09)
(0 -0.000454546 -1.74425e-09)
(0 -0.000434783 -1.99647e-09)
(0 -0.000476191 -2.75984e-09)
(0 -0.000555557 -4.20361e-09)
(0 -0.000526317 -5.30404e-09)
(0 -0.000555557 -7.54169e-09)
(0 -0.000454547 -8.3641e-09)
(0 -0.000416669 -1.04284e-08)
(0 -0.000588239 -2.00621e-08)
(0 -0.000434786 -2.02271e-08)
(0 -0.000416671 -2.64563e-08)
(0 -0.000625009 -5.41797e-08)
(0 -0.000454554 -5.38064e-08)
(0 -0.000666684 -1.07776e-07)
(0 -0.000555576 -1.22673e-07)
(0 -0.000476214 -1.43635e-07)
(0 -0.000434811 -1.79174e-07)
(0 -0.000416703 -2.34643e-07)
(0 -0.000555621 -4.27658e-07)
(0 -0.000588329 -6.19264e-07)
(0 -0.000500105 -7.20393e-07)
(0 -0.000666851 -1.31609e-06)
(0 -0.000500177 -1.35494e-06)
(0 -0.000500219 -1.86513e-06)
(0 -0.000555832 -2.86432e-06)
(0 -0.000588503 -4.21289e-06)
(0 -0.000555616 -5.54808e-06)
(0 -0.00045411 -6.30263e-06)
(0 -0.000498312 -9.37154e-06)
(0 -0.000472562 -1.13677e-05)
(0 -0.000428881 -1.22758e-05)
(0 -0.000445267 -1.41438e-05)
(0 -0.000405499 -1.37449e-05)
(0 -0.000403497 -1.48205e-05)
(0 -0.000532311 -1.85317e-05)
(0 -0.000516847 -1.20929e-05)
(0 -0.000360224 -6.61232e-06)
(0 -0.00044164 -1.11478e-05)
(0 -0.000350974 -9.43785e-06)
(0 -0.000466554 -1.27064e-05)
(0 -0.00035458 -8.64724e-06)
(0 -0.000362818 -8.81656e-06)
(0 -0.000399364 -8.78938e-06)
(0 -0.000285148 -6.04679e-06)
(0 -0.000364167 -7.26826e-06)
(0 -0.000266719 -4.7546e-06)
(0 -0.000406772 -6.70441e-06)
(0 -0.000253321 -3.85629e-06)
(0 -0.000252819 -3.64761e-06)
(0 -0.000263778 -3.65264e-06)
(0 -0.000303668 -3.97613e-06)
(0 -0.000338061 -4.12165e-06)
(0 -0.000290523 -3.12705e-06)
(0 -0.000290858 -2.45459e-06)
(0 -0.000271372 -1.15472e-06)
(0 -0.000299974 2.83792e-07)
(0 -0.000283237 8.10933e-07)
(0 -0.000222892 9.8506e-07)
(0 -0.000197192 -3.11183e-07)
(0 -0.000140734 -8.16456e-07)
(0 -0.000104602 -7.95773e-07)
(0 -7.85834e-05 -6.17356e-07)
(0 -7.64805e-05 -3.18876e-07)
(0 -5.47646e-05 -3.26751e-07)
(0 -4.45663e-05 -7.70904e-07)
(0 -1.92652e-05 -8.29679e-07)
(0 -0.000658575 -2.30151e-05)
(0 -0.000430099 -1.13675e-05)
(0 -0.000550647 -1.08089e-05)
(0 -0.000413787 -5.98279e-06)
(0 -0.000473687 -5.02633e-06)
(0 -0.000664043 -5.16309e-06)
(0 -0.00052478 -2.98792e-06)
(0 -0.000525183 -2.18917e-06)
(0 -0.000587305 -1.7922e-06)
(0 -0.000454018 -1.01427e-06)
(0 -0.000475785 -7.78161e-07)
(0 -0.000666251 -7.97793e-07)
(0 -0.000454338 -3.98329e-07)
(0 -0.00055537 -3.56508e-07)
(0 -0.000434676 -2.0431e-07)
(0 -0.000624888 -2.15065e-07)
(0 -0.000555483 -1.39989e-07)
(0 -0.000434741 -8.02266e-08)
(0 -0.000476157 -6.43453e-08)
(0 -0.000499975 -4.94785e-08)
(0 -0.000555535 -4.02647e-08)
(0 -0.000526302 -2.79427e-08)
(0 -0.000476181 -1.85255e-08)
(0 -0.000666657 -1.90166e-08)
(0 -0.000476186 -9.97103e-09)
(0 -0.000416664 -6.41818e-09)
(0 -0.00043478 -4.94628e-09)
(0 -0.000555554 -4.70181e-09)
(0 -0.000454544 -2.89946e-09)
(0 -0.000624999 -3.07438e-09)
(0 -0.000555555 -2.18934e-09)
(0 -0.0005 -1.6742e-09)
(0 -0.000555556 -1.71314e-09)
(0 -0.000555556 -1.73367e-09)
(0 -0.000434783 -1.50556e-09)
(0 -0.000500001 -2.07184e-09)
(0 -0.000476192 -2.49041e-09)
(0 -0.000454547 -3.10347e-09)
(0 -0.000476193 -4.33017e-09)
(0 -0.000434786 -5.32564e-09)
(0 -0.000434787 -7.21896e-09)
(0 -0.000476196 -1.07543e-08)
(0 -0.000454553 -1.39892e-08)
(0 -0.000434792 -1.8254e-08)
(0 -0.000416679 -2.38781e-08)
(0 -0.00058826 -4.60302e-08)
(0 -0.000476217 -5.08933e-08)
(0 -0.000625048 -9.12509e-08)
(0 -0.000526371 -1.04995e-07)
(0 -0.000526391 -1.43496e-07)
(0 -0.000588349 -2.19255e-07)
(0 -0.000555702 -2.83211e-07)
(0 -0.000416816 -2.90673e-07)
(0 -0.000526573 -5.02861e-07)
(0 -0.00066711 -8.7341e-07)
(0 -0.000454956 -8.18083e-07)
(0 -0.000476776 -1.18089e-06)
(0 -0.000589219 -2.02014e-06)
(0 -0.000501133 -2.39904e-06)
(0 -0.000455919 -3.09382e-06)
(0 -0.000418259 -4.12028e-06)
(0 -0.000456407 -6.70756e-06)
(0 -0.0004557 -9.92067e-06)
(0 -0.000665321 -1.9728e-05)
(0 -0.000430648 -1.56343e-05)
(0 -0.000577494 -2.29302e-05)
(0 -0.000406096 -1.60927e-05)
(0 -0.000511753 -1.94696e-05)
(0 -0.000461902 -1.97677e-05)
(0 -0.000430765 -1.76396e-05)
(0 -0.000425302 -1.03691e-05)
(0 -0.000389351 -5.51578e-06)
(0 -0.000418054 -4.80993e-06)
(0 -0.000371833 -5.67025e-06)
(0 -0.00045256 -6.60575e-06)
(0 -0.000284933 -4.39147e-06)
(0 -0.000426561 -7.23257e-06)
(0 -0.000285473 -4.61083e-06)
(0 -0.000281085 -4.52536e-06)
(0 -0.000360693 -5.33311e-06)
(0 -0.000290358 -4.23344e-06)
(0 -0.000357474 -4.84027e-06)
(0 -0.00040462 -5.27852e-06)
(0 -0.000263781 -3.28775e-06)
(0 -0.000263956 -3.12116e-06)
(0 -0.000253369 -2.72818e-06)
(0 -0.000254126 -2.14054e-06)
(0 -0.000279812 -6.14581e-07)
(0 -0.000268869 -9.50872e-07)
(0 -0.000252175 -2.33383e-06)
(0 -0.000330105 1.93538e-07)
(0 -0.000245993 -2.51857e-08)
(0 -0.000157219 -1.22165e-09)
(0 -0.000135187 4.85251e-07)
(0 -0.00011074 -1.79102e-10)
(0 -9.88001e-05 1.74953e-07)
(0 -8.26431e-05 -1.65136e-08)
(0 -6.21402e-05 7.83813e-08)
(0 -4.13926e-05 -3.20483e-07)
(0 -1.71769e-05 -3.9073e-07)
(0 -0.000575455 -1.93546e-05)
(0 -0.000654273 -1.55089e-05)
(0 -0.000579574 -9.72578e-06)
(0 -0.000581631 -6.97644e-06)
(0 -0.0004958 -4.28606e-06)
(0 -0.000414074 -2.59493e-06)
(0 -0.000622135 -2.83709e-06)
(0 -0.000498316 -1.65754e-06)
(0 -0.000415637 -1.00991e-06)
(0 -0.000499094 -8.86646e-07)
(0 -0.000475559 -6.18033e-07)
(0 -0.000555016 -5.27842e-07)
(0 -0.000624555 -4.34766e-07)
(0 -0.000624674 -3.18335e-07)
(0 -0.000476009 -1.77595e-07)
(0 -0.000624826 -1.70682e-07)
(0 -0.000624872 -1.24983e-07)
(0 -0.000499925 -7.32175e-08)
(0 -0.000666594 -7.14887e-08)
(0 -0.00062495 -4.9081e-08)
(0 -0.000666628 -3.83429e-08)
(0 -0.000526293 -2.21739e-08)
(0 -0.000588217 -1.81596e-08)
(0 -0.00047618 -1.07786e-08)
(0 -0.000666656 -1.10769e-08)
(0 -0.000476185 -5.82032e-09)
(0 -0.000499996 -4.51352e-09)
(0 -0.000624996 -4.19719e-09)
(0 -0.000476189 -2.41032e-09)
(0 -0.000416666 -1.62648e-09)
(0 -0.000416666 -1.30317e-09)
(0 -0.000588235 -1.56341e-09)
(0 -0.000666667 -1.632e-09)
(0 -0.000588236 -1.45743e-09)
(0 -0.000476191 -1.30929e-09)
(0 -0.000454547 -1.49552e-09)
(0 -0.000625003 -2.59525e-09)
(0 -0.000526319 -2.85297e-09)
(0 -0.000500004 -3.60952e-09)
(0 -0.000555561 -5.40211e-09)
(0 -0.000500007 -6.5902e-09)
(0 -0.000416675 -7.46989e-09)
(0 -0.00058825 -1.43715e-08)
(0 -0.00066669 -2.22202e-08)
(0 -0.000416686 -1.89578e-08)
(0 -0.00052635 -3.27023e-08)
(0 -0.000434821 -3.69031e-08)
(0 -0.000555622 -6.44303e-08)
(0 -0.000434853 -6.8917e-08)
(0 -0.000555679 -1.20397e-07)
(0 -0.000434914 -1.28875e-07)
(0 -0.000588478 -2.38605e-07)
(0 -0.000526613 -2.92345e-07)
(0 -0.000476558 -3.62507e-07)
(0 -0.000526871 -5.49714e-07)
(0 -0.000435411 -6.2392e-07)
(0 -0.000477137 -9.40737e-07)
(0 -0.000589856 -1.60515e-06)
(0 -0.000669247 -2.53059e-06)
(0 -0.000529235 -2.82997e-06)
(0 -0.000420025 -3.33547e-06)
(0 -0.000594693 -7.90977e-06)
(0 -0.00050573 -1.2105e-05)
(0 -0.000592066 -2.15963e-05)
(0 -0.000585767 -2.76668e-05)
(0 -0.000613866 -3.14134e-05)
(0 -0.000420906 -2.10543e-05)
(0 -0.000527831 -2.45787e-05)
(0 -0.000399054 -1.81094e-05)
(0 -0.000361433 -1.68885e-05)
(0 -0.000369352 -1.22614e-05)
(0 -0.000512957 -8.80036e-06)
(0 -0.000487852 -4.93464e-06)
(0 -0.00033176 -2.90154e-06)
(0 -0.000394676 -4.14779e-06)
(0 -0.000384007 -3.6791e-06)
(0 -0.00027707 -3.60941e-06)
(0 -0.000284212 -3.62931e-06)
(0 -0.000268085 -3.5549e-06)
(0 -0.000407827 -5.40646e-06)
(0 -0.000264554 -3.44097e-06)
(0 -0.000379092 -4.76322e-06)
(0 -0.000252382 -3.03104e-06)
(0 -0.000318762 -3.61919e-06)
(0 -0.00037878 -4.18129e-06)
(0 -0.000263596 -2.859e-06)
(0 -0.000335762 -3.62409e-06)
(0 -0.000329318 -3.66183e-06)
(0 -0.000330167 -3.73651e-06)
(0 -0.000338926 -4.9692e-09)
(0 -0.000331786 1.23835e-06)
(0 -0.000188076 2.70926e-07)
(0 -0.000146186 6.55332e-07)
(0 -0.000177388 -3.52258e-07)
(0 -0.000100156 -4.06361e-07)
(0 -9.65595e-05 -7.22567e-07)
(0 -8.42673e-05 -8.27734e-07)
(0 -7.16817e-05 -1.6384e-07)
(0 -4.81729e-05 -4.72895e-07)
(0 -1.8621e-05 -1.26758e-07)
(0 -0.000438885 -1.28399e-05)
(0 -0.000422982 -7.59642e-06)
(0 -0.000653174 -7.70398e-06)
(0 -0.000579486 -4.69129e-06)
(0 -0.000412129 -2.35225e-06)
(0 -0.000496016 -2.02762e-06)
(0 -0.000451895 -1.33519e-06)
(0 -0.000432927 -9.29479e-07)
(0 -0.000433424 -6.78268e-07)
(0 -0.000415714 -4.75045e-07)
(0 -0.000475393 -3.97112e-07)
(0 -0.000587514 -3.58987e-07)
(0 -0.000525844 -2.35119e-07)
(0 -0.000666229 -2.18036e-07)
(0 -0.000416466 -9.97758e-08)
(0 -0.000526131 -9.22828e-08)
(0 -0.000624839 -8.02425e-08)
(0 -0.000588125 -5.53014e-08)
(0 -0.000624914 -4.30266e-08)
(0 -0.0004545 -2.29154e-08)
(0 -0.000416636 -1.53839e-08)
(0 -0.000434759 -1.17585e-08)
(0 -0.000555534 -1.10091e-08)
(0 -0.000526301 -7.64675e-09)
(0 -0.000666653 -7.10961e-09)
(0 -0.000476183 -3.73558e-09)
(0 -0.00052631 -3.04926e-09)
(0 -0.000666662 -2.87339e-09)
(0 -0.000555553 -1.80491e-09)
(0 -0.000666664 -1.67056e-09)
(0 -0.000526315 -1.05695e-09)
(0 -0.000588235 -1.00417e-09)
(0 -0.000666667 -1.0486e-09)
(0 -0.000454546 -7.23818e-10)
(0 -0.000625001 -1.10461e-09)
(0 -0.000500002 -1.05743e-09)
(0 -0.000416669 -1.11199e-09)
(0 -0.000434786 -1.51448e-09)
(0 -0.000416671 -1.93259e-09)
(0 -0.000666675 -4.16446e-09)
(0 -0.000476199 -4.0316e-09)
(0 -0.000625015 -7.19683e-09)
(0 -0.000588254 -9.23038e-09)
(0 -0.000666696 -1.42713e-08)
(0 -0.00050003 -1.46115e-08)
(0 -0.000434818 -1.73522e-08)
(0 -0.00066674 -3.63489e-08)
(0 -0.000625094 -4.65689e-08)
(0 -0.000416752 -4.24402e-08)
(0 -0.000555711 -7.73842e-08)
(0 -0.000666922 -1.27047e-07)
(0 -0.000588543 -1.53452e-07)
(0 -0.000435093 -1.55354e-07)
(0 -0.000556098 -2.72063e-07)
(0 -0.000556299 -3.73016e-07)
(0 -0.000589315 -5.41339e-07)
(0 -0.000477392 -5.9931e-07)
(0 -0.000501746 -8.54686e-07)
(0 -0.000502457 -1.13989e-06)
(0 -0.000559573 -1.61129e-06)
(0 -0.000439953 -1.43841e-06)
(0 -0.000443607 -2.96442e-06)
(0 -0.000445665 -1.11384e-05)
(0 -0.000507863 -2.4203e-05)
(0 -0.000621462 -3.90656e-05)
(0 -0.000460448 -2.87298e-05)
(0 -0.000594135 -3.27731e-05)
(0 -0.00040695 -2.04399e-05)
(0 -0.000437398 -1.62884e-05)
(0 -0.000364632 -7.14926e-06)
(0 -0.00051761 -4.91384e-06)
(0 -0.000336341 -2.50863e-06)
(0 -0.000329949 -1.98501e-06)
(0 -0.000345923 -2.23342e-06)
(0 -0.000333139 -3.00654e-06)
(0 -0.000432505 -4.74199e-06)
(0 -0.000352393 -4.28516e-06)
(0 -0.000327582 -3.77152e-06)
(0 -0.000292288 -3.38806e-06)
(0 -0.000380492 -4.58208e-06)
(0 -0.000302795 -3.49404e-06)
(0 -0.000274365 -2.98206e-06)
(0 -0.000251226 -2.62794e-06)
(0 -0.00031753 -3.19302e-06)
(0 -0.000262755 -2.62003e-06)
(0 -0.000302879 -3.17557e-06)
(0 -0.000304015 -3.77296e-06)
(0 -0.000292622 -5.37751e-06)
(0 -0.00041566 -5.17592e-06)
(0 -0.000243992 1.79889e-06)
(0 -0.000363766 1.04419e-06)
(0 -0.000213427 1.45293e-06)
(0 -0.000208636 2.70826e-07)
(0 -0.000135146 -6.07005e-07)
(0 -0.000110455 -2.02057e-08)
(0 -9.30935e-05 -8.05879e-07)
(0 -6.83113e-05 -8.43812e-07)
(0 -7.02021e-05 -4.04563e-07)
(0 -3.73102e-05 -2.63663e-07)
(0 -1.75855e-05 -2.51179e-07)
(0 -0.000556184 -7.28507e-06)
(0 -0.000602948 -4.26243e-06)
(0 -0.00048789 -2.12153e-06)
(0 -0.000546035 -1.57748e-06)
(0 -0.000548712 -1.09946e-06)
(0 -0.000495535 -7.05155e-07)
(0 -0.000551943 -5.65157e-07)
(0 -0.000622034 -4.61682e-07)
(0 -0.00052449 -2.83357e-07)
(0 -0.000623414 -2.45747e-07)
(0 -0.000554524 -1.59718e-07)
(0 -0.000554801 -1.16857e-07)
(0 -0.000624378 -9.62204e-08)
(0 -0.000555151 -6.26125e-08)
(0 -0.000624667 -5.15715e-08)
(0 -0.000476005 -2.87696e-08)
(0 -0.000454416 -2.0108e-08)
(0 -0.000454451 -1.47237e-08)
(0 -0.000526235 -1.24838e-08)
(0 -0.00041662 -7.23713e-09)
(0 -0.000416633 -5.30004e-09)
(0 -0.000624963 -5.82308e-09)
(0 -0.000526293 -3.59285e-09)
(0 -0.000555538 -2.78037e-09)
(0 -0.000416657 -1.53055e-09)
(0 -0.000434775 -1.17476e-09)
(0 -0.000476185 -9.50203e-10)
(0 -0.000454542 -6.74769e-10)
(0 -0.00043478 -4.86548e-10)
(0 -0.000588233 -5.07812e-10)
(0 -0.000476189 -3.29542e-10)
(0 -0.000526315 -3.09739e-10)
(0 -0.000476191 -2.58325e-10)
(0 -0.000666668 -3.66268e-10)
(0 -0.000416668 -2.54115e-10)
(0 -0.000434784 -3.17287e-10)
(0 -0.000500003 -4.60375e-10)
(0 -0.000625005 -7.50953e-10)
(0 -0.000500005 -7.99789e-10)
(0 -0.000434789 -9.36481e-10)
(0 -0.000434791 -1.26906e-09)
(0 -0.00052633 -2.08916e-09)
(0 -0.000434798 -2.35163e-09)
(0 -0.000526341 -3.88336e-09)
(0 -0.000416694 -4.19674e-09)
(0 -0.000666726 -9.17051e-09)
(0 -0.000434836 -8.17095e-09)
(0 -0.000588333 -1.51081e-08)
(0 -0.000666818 -2.34088e-08)
(0 -0.000434918 -2.08798e-08)
(0 -0.000555791 -3.65062e-08)
(0 -0.000416908 -3.74836e-08)
(0 -0.000500397 -6.16117e-08)
(0 -0.000526887 -8.88643e-08)
(0 -0.000435428 -1.00555e-07)
(0 -0.000435666 -1.3744e-07)
(0 -0.000668519 -2.86007e-07)
(0 -0.000501889 -2.85196e-07)
(0 -0.00052898 -3.75572e-07)
(0 -0.000629058 -4.48619e-07)
(0 -0.000419624 -2.35879e-08)
(0 -0.000669094 -5.38534e-07)
(0 -0.000487703 -6.72171e-06)
(0 -0.000620562 -2.027e-05)
(0 -0.000430132 -1.9982e-05)
(0 -0.00042083 -1.93716e-05)
(0 -0.000514863 -1.93387e-05)
(0 -0.000447034 -1.4797e-05)
(0 -0.000470702 -1.14778e-05)
(0 -0.000411601 -3.50301e-06)
(0 -0.000480198 4.28899e-07)
(0 -0.000406998 2.23204e-06)
(0 -0.000441632 1.63475e-06)
(0 -0.000353444 -1.16013e-07)
(0 -0.000361854 -1.10448e-06)
(0 -0.000299287 -1.81728e-06)
(0 -0.000243205 -1.67389e-06)
(0 -0.000318768 -1.88663e-06)
(0 -0.000315655 -1.82077e-06)