/*--------------------------------*- C++ -*----------------------------------*\
| =========                 |                                                 |
| \\      /  F ield         | foam-extend: Open Source CFD                    |
|  \\    /   O peration     | Version:     5.0                                |
|   \\  /    A nd           | Web:         http://www.foam-extend.org         |
|    \\/     M anipulation  |                                                 |
\*---------------------------------------------------------------------------*/
FoamFile
{
    version     2.0;
    format      ascii;
    class       volScalarField;
    location    "3";
    object      alpha.gas;
}
// * * * * * * * * * * * * * * * * * * * * * * * * * * * * * * * * * * * * * //

dimensions      [0 0 0 0 0 0 0];

internalField   nonuniform List<scalar> 
100
(
0.118096
0.100594
0.0903638
0.0832372
0.0779408
0.0738408
0.0703965
0.0675444
0.0649708
0.0627936
0.0607581
0.0588725
0.0572712
0.0556845
0.0542759
0.0529247
0.0516883
0.0506396
0.0496888
0.0487539
0.0477147
0.046776
0.0459113
0.0450766
0.0442896
0.0435341
0.0428094
0.0421887
0.0415492
0.040857
0.0402518
0.0396793
0.0391609
0.0386125
0.0381113
0.0375585
0.0370372
0.0365321
0.0360405
0.03555
0.035084
0.0346353
0.0341905
0.0337391
0.0332809
0.0328613
0.0324359
0.0320292
0.0316223
0.031241
0.0308418
0.0304537
0.0300835
0.0296848
0.0293213
0.0289412
0.0285506
0.02817
0.0277951
0.02745
0.0270799
0.026725
0.0263712
0.026024
0.0256735
0.0253206
0.0249714
0.0246091
0.0242514
0.0238973
0.0235374
0.0231796
0.0228181
0.0224515
0.0220911
0.021728
0.0213613
0.0209799
0.020597
0.020215
0.0198225
0.0194285
0.0190199
0.0186138
0.0181965
0.0177779
0.0173566
0.0169284
0.0164953
0.0160596
0.0156204
0.0151828
0.0147475
0.0143201
0.0139038
0.0135001
0.0131072
0.0127363
0.0123895
0.0120797
)
;

boundaryField
{
    inlet
    {
        type            fixedValue;
        value           uniform 0.2;
    }
    outlet
    {
        type            zeroGradient;
    }
    yzfaces
    {
        type            empty;
    }
}


// ************************************************************************* //
