/*--------------------------------*- C++ -*----------------------------------*\
| =========                 |                                                 |
| \\      /  F ield         | foam-extend: Open Source CFD                    |
|  \\    /   O peration     | Version:     5.0                                |
|   \\  /    A nd           | Web:         http://www.foam-extend.org         |
|    \\/     M anipulation  |                                                 |
\*---------------------------------------------------------------------------*/
FoamFile
{
    version     2.0;
    format      ascii;
    class       volScalarField;
    location    "3";
    object      CO2.gas;
}
// * * * * * * * * * * * * * * * * * * * * * * * * * * * * * * * * * * * * * //

dimensions      [0 0 0 0 0 0 0];

internalField   nonuniform List<scalar> 
100
(
0.118155
0.100528
0.0902018
0.0830154
0.0778331
0.073785
0.0703799
0.067569
0.0649913
0.0628354
0.0607769
0.0588675
0.0573147
0.0557004
0.0542853
0.0528901
0.0516473
0.050649
0.0496982
0.0487263
0.04768
0.0467638
0.0458662
0.0450575
0.0442792
0.0435076
0.0427776
0.0421812
0.0415414
0.0408287
0.0402498
0.0396723
0.0391656
0.0386086
0.038087
0.0375178
0.0369911
0.0364629
0.0359511
0.0354326
0.0349338
0.034447
0.0339619
0.0334482
0.0329112
0.0324165
0.0318732
0.0313424
0.0307926
0.0302329
0.0296231
0.0289887
0.0283409
0.0276223
0.026911
0.026118
0.0252886
0.0244188
0.0235204
0.0225991
0.0216012
0.0205821
0.0195295
0.0184513
0.0173385
0.0162149
0.01508
0.0139331
0.0128017
0.0116824
0.0105867
0.00952613
0.00850717
0.00753161
0.0066158
0.00575841
0.00496455
0.00423768
0.0035799
0.00299229
0.0024721
0.00201805
0.00162656
0.00129449
0.00101594
0.000786547
0.000599921
0.000450602
0.000333122
0.000242406
0.000173459
0.000122127
8.46194e-05
5.77274e-05
3.88116e-05
2.57332e-05
1.68579e-05
1.09314e-05
7.03149e-06
4.76972e-06
)
;

boundaryField
{
    inlet
    {
        type            fixedValue;
        value           uniform 0.2;
    }
    outlet
    {
        type            zeroGradient;
    }
    yzfaces
    {
        type            empty;
    }
}


// ************************************************************************* //
