/*--------------------------------*- C++ -*----------------------------------*\
| =========                 |                                                 |
| \\      /  F ield         | foam-extend: Open Source CFD                    |
|  \\    /   O peration     | Version:     5.0                                |
|   \\  /    A nd           | Web:         http://www.foam-extend.org         |
|    \\/     M anipulation  |                                                 |
\*---------------------------------------------------------------------------*/
FoamFile
{
    version     2.0;
    format      ascii;
    class       surfaceScalarField;
    location    "3";
    object      phi;
}
// * * * * * * * * * * * * * * * * * * * * * * * * * * * * * * * * * * * * * //

dimensions      [0 3 -1 0 0 0 0];

internalField   nonuniform List<scalar> 
99
(
1.22301e-06
1.23232e-06
1.23188e-06
1.22669e-06
1.22616e-06
1.22928e-06
1.23433e-06
1.23524e-06
1.23649e-06
1.23459e-06
1.23278e-06
1.23405e-06
1.2342e-06
1.23408e-06
1.23487e-06
1.23605e-06
1.23867e-06
1.2368e-06
1.23608e-06
1.23394e-06
1.23275e-06
1.23624e-06
1.23423e-06
1.23519e-06
1.23586e-06
1.23726e-06
1.23688e-06
1.23567e-06
1.23606e-06
1.2366e-06
1.23816e-06
1.2387e-06
1.23808e-06
1.23809e-06
1.238e-06
1.23735e-06
1.23841e-06
1.23719e-06
1.23806e-06
1.23835e-06
1.23857e-06
1.23876e-06
1.23868e-06
1.23749e-06
1.23849e-06
1.23843e-06
1.23804e-06
1.2372e-06
1.23729e-06
1.23567e-06
1.23578e-06
1.23645e-06
1.23603e-06
1.23702e-06
1.23585e-06
1.23513e-06
1.23544e-06
1.23608e-06
1.2362e-06
1.23537e-06
1.23623e-06
1.23664e-06
1.23658e-06
1.23638e-06
1.23659e-06
1.23697e-06
1.23622e-06
1.23608e-06
1.23526e-06
1.23489e-06
1.23568e-06
1.23559e-06
1.2363e-06
1.23676e-06
1.23763e-06
1.23695e-06
1.23731e-06
1.23701e-06
1.23803e-06
1.23799e-06
1.23792e-06
1.23776e-06
1.23765e-06
1.23795e-06
1.23886e-06
1.23895e-06
1.23944e-06
1.23947e-06
1.23913e-06
1.23853e-06
1.23839e-06
1.23783e-06
1.23847e-06
1.23833e-06
1.23836e-06
1.23771e-06
1.23825e-06
1.23849e-06
1.23871e-06
)
;

boundaryField
{
    inlet
    {
        type            calculated;
        value           uniform -1.225e-06;
    }
    outlet
    {
        type            calculated;
        value           uniform 1.23941e-06;
    }
    yzfaces
    {
        type            empty;
    }
}


// ************************************************************************* //
