/*--------------------------------*- C++ -*----------------------------------*\
| =========                 |                                                 |
| \\      /  F ield         | foam-extend: Open Source CFD                    |
|  \\    /   O peration     | Version:     5.0                                |
|   \\  /    A nd           | Web:         http://www.foam-extend.org         |
|    \\/     M anipulation  |                                                 |
\*---------------------------------------------------------------------------*/
FoamFile
{
    version     2.0;
    format      ascii;
    class       volVectorField;
    location    "3";
    object      U.gas;
}
// * * * * * * * * * * * * * * * * * * * * * * * * * * * * * * * * * * * * * //

dimensions      [0 1 -1 0 0 0 0];

internalField   nonuniform List<vector> 
100
(
(0.00842537 0 0)
(0.00983651 0 0)
(0.0108958 0 0)
(0.011702 0 0)
(0.0123644 0 0)
(0.0129602 0 0)
(0.013533 0 0)
(0.0140306 0 0)
(0.0144881 0 0)
(0.0148728 0 0)
(0.0152319 0 0)
(0.0155936 0 0)
(0.015916 0 0)
(0.016244 0 0)
(0.0165411 0 0)
(0.0168441 0 0)
(0.0171357 0 0)
(0.0173651 0 0)
(0.0175561 0 0)
(0.0177478 0 0)
(0.0179694 0 0)
(0.0181948 0 0)
(0.0184007 0 0)
(0.0185857 0 0)
(0.0187784 0 0)
(0.0189689 0 0)
(0.019142 0 0)
(0.0192619 0 0)
(0.0194069 0 0)
(0.0195819 0 0)
(0.019726 0 0)
(0.0198694 0 0)
(0.0199791 0 0)
(0.020101 0 0)
(0.0202058 0 0)
(0.020328 0 0)
(0.0204373 0 0)
(0.0205413 0 0)
(0.0206372 0 0)
(0.020747 0 0)
(0.0208404 0 0)
(0.0209274 0 0)
(0.0210128 0 0)
(0.0210875 0 0)
(0.0211684 0 0)
(0.0212398 0 0)
(0.0213088 0 0)
(0.0213584 0 0)
(0.0214144 0 0)
(0.0214505 0 0)
(0.0214974 0 0)
(0.0215516 0 0)
(0.0215937 0 0)
(0.0216529 0 0)
(0.0216798 0 0)
(0.0217043 0 0)
(0.0217382 0 0)
(0.0217729 0 0)
(0.0218038 0 0)
(0.0218066 0 0)
(0.0218303 0 0)
(0.0218472 0 0)
(0.0218572 0 0)
(0.0218547 0 0)
(0.0218554 0 0)
(0.021854 0 0)
(0.021837 0 0)
(0.0218194 0 0)
(0.0217874 0 0)
(0.0217475 0 0)
(0.0217207 0 0)
(0.0216872 0 0)
(0.0216474 0 0)
(0.021607 0 0)
(0.0215562 0 0)
(0.0214905 0 0)
(0.0214141 0 0)
(0.0213381 0 0)
(0.021249 0 0)
(0.021153 0 0)
(0.0210426 0 0)
(0.0209143 0 0)
(0.0207793 0 0)
(0.020626 0 0)
(0.0204752 0 0)
(0.0203002 0 0)
(0.0201087 0 0)
(0.0199055 0 0)
(0.0196756 0 0)
(0.0194213 0 0)
(0.0191538 0 0)
(0.0188673 0 0)
(0.0185706 0 0)
(0.0182603 0 0)
(0.0179343 0 0)
(0.0175996 0 0)
(0.017264 0 0)
(0.0169286 0 0)
(0.0165961 0 0)
(0.0162498 0 0)
)
;

boundaryField
{
    inlet
    {
        type            fixedValue;
        value           uniform (0.005 0 0);
    }
    outlet
    {
        type            zeroGradient;
    }
    yzfaces
    {
        type            empty;
    }
}


// ************************************************************************* //
