/*--------------------------------*- C++ -*----------------------------------*\
| =========                 |                                                 |
| \\      /  F ield         | foam-extend: Open Source CFD                    |
|  \\    /   O peration     | Version:     5.0                                |
|   \\  /    A nd           | Web:         http://www.foam-extend.org         |
|    \\/     M anipulation  |                                                 |
\*---------------------------------------------------------------------------*/
FoamFile
{
    version     2.0;
    format      ascii;
    class       volVectorField;
    location    "3";
    object      U.water;
}
// * * * * * * * * * * * * * * * * * * * * * * * * * * * * * * * * * * * * * //

dimensions      [0 1 -1 0 0 0 0];

internalField   nonuniform List<vector> 
100
(
(5.10541e-05 0 0)
(0.000127613 0 0)
(0.000193481 0 0)
(0.000252305 0 0)
(0.000306956 0 0)
(0.000358521 0 0)
(0.000407972 0 0)
(0.000455198 0 0)
(0.000500373 0 0)
(0.000544359 0 0)
(0.000586229 0 0)
(0.00062949 0 0)
(0.000672052 0 0)
(0.000713156 0 0)
(0.000754531 0 0)
(0.000795982 0 0)
(0.000838616 0 0)
(0.000877322 0 0)
(0.000911422 0 0)
(0.000944785 0 0)
(0.000981125 0 0)
(0.0010225 0 0)
(0.00106143 0 0)
(0.00109825 0 0)
(0.00113607 0 0)
(0.00117368 0 0)
(0.00121123 0 0)
(0.00124559 0 0)
(0.0012782 0 0)
(0.00131451 0 0)
(0.00135275 0 0)
(0.00138821 0 0)
(0.00142088 0 0)
(0.00145322 0 0)
(0.00148608 0 0)
(0.00151969 0 0)
(0.00155604 0 0)
(0.00159072 0 0)
(0.00162558 0 0)
(0.00166144 0 0)
(0.00169676 0 0)
(0.0017315 0 0)
(0.00176567 0 0)
(0.00179966 0 0)
(0.00183602 0 0)
(0.00187283 0 0)
(0.00190754 0 0)
(0.00194207 0 0)
(0.00197667 0 0)
(0.0020102 0 0)
(0.00204386 0 0)
(0.00208053 0 0)
(0.0021161 0 0)
(0.00215274 0 0)
(0.00218924 0 0)
(0.0022239 0 0)
(0.00226165 0 0)
(0.00230135 0 0)
(0.00234055 0 0)
(0.00237734 0 0)
(0.00241529 0 0)
(0.00245546 0 0)
(0.00249427 0 0)
(0.00253268 0 0)
(0.00257144 0 0)
(0.00261198 0 0)
(0.00265193 0 0)
(0.00269196 0 0)
(0.00273309 0 0)
(0.00277406 0 0)
(0.0028173 0 0)
(0.00286156 0 0)
(0.00290651 0 0)
(0.00295301 0 0)
(0.00300015 0 0)
(0.00304638 0 0)
(0.00309265 0 0)
(0.00314073 0 0)
(0.00319144 0 0)
(0.00324282 0 0)
(0.00329373 0 0)
(0.00334575 0 0)
(0.00339899 0 0)
(0.00345407 0 0)
(0.00351129 0 0)
(0.00356958 0 0)
(0.00362766 0 0)
(0.00368616 0 0)
(0.00374444 0 0)
(0.00380229 0 0)
(0.00386051 0 0)
(0.0039187 0 0)
(0.00397761 0 0)
(0.00403624 0 0)
(0.00409217 0 0)
(0.00414501 0 0)
(0.00419658 0 0)
(0.00424699 0 0)
(0.00429339 0 0)
(0.00433793 0 0)
)
;

boundaryField
{
    inlet
    {
        type            fixedValue;
        value           uniform (0 0 0);
    }
    outlet
    {
        type            zeroGradient;
    }
    yzfaces
    {
        type            empty;
    }
}


// ************************************************************************* //
