/*--------------------------------*- C++ -*----------------------------------*\
| =========                 |                                                 |
| \\      /  F ield         | foam-extend: Open Source CFD                    |
|  \\    /   O peration     | Version:     5.0                                |
|   \\  /    A nd           | Web:         http://www.foam-extend.org         |
|    \\/     M anipulation  |                                                 |
\*---------------------------------------------------------------------------*/
FoamFile
{
    version     2.0;
    format      ascii;
    class       volVectorField;
    location    "7";
    object      U.water;
}
// * * * * * * * * * * * * * * * * * * * * * * * * * * * * * * * * * * * * * //

dimensions      [0 1 -1 0 0 0 0];

internalField   nonuniform List<vector> 
100
(
(0.005007 0 0)
(0.00500494 0 0)
(0.00499957 0 0)
(0.00500578 0 0)
(0.00500921 0 0)
(0.00500556 0 0)
(0.00500811 0 0)
(0.00501163 0 0)
(0.00501088 0 0)
(0.00501016 0 0)
(0.00500898 0 0)
(0.00500782 0 0)
(0.00501053 0 0)
(0.00501137 0 0)
(0.00500796 0 0)
(0.00500988 0 0)
(0.00501237 0 0)
(0.00501213 0 0)
(0.00500816 0 0)
(0.00501113 0 0)
(0.00501301 0 0)
(0.00500505 0 0)
(0.00500791 0 0)
(0.0050084 0 0)
(0.00500594 0 0)
(0.00500904 0 0)
(0.00500772 0 0)
(0.0050114 0 0)
(0.00500906 0 0)
(0.00500003 0 0)
(0.00497441 0 0)
(0.00488683 0 0)
(0.00482839 0 0)
(0.0048201 0 0)
(0.00478144 0 0)
(0.00473514 0 0)
(0.00470745 0 0)
(0.00461667 0 0)
(0.00459296 0 0)
(0.00446825 0 0)
(0.00445872 0 0)
(0.00430453 0 0)
(0.00432789 0 0)
(0.00477728 0 0)
(0.00466807 0 0)
(0.00279177 0 0)
(0.00023723 0 0)
(2.0168e-05 0 0)
(1.6844e-06 0 0)
(1.45647e-07 0 0)
(1.2733e-08 0 0)
(1.10527e-09 0 0)
(9.48348e-11 0 0)
(8.32621e-12 0 0)
(7.21827e-13 0 0)
(6.36866e-14 0 0)
(5.52662e-15 0 0)
(4.86266e-16 0 0)
(4.28367e-17 0 0)
(3.83308e-18 0 0)
(3.36336e-19 0 0)
(2.97e-20 0 0)
(2.65759e-21 0 0)
(2.33411e-22 0 0)
(2.06827e-23 0 0)
(1.83139e-24 0 0)
(1.62299e-25 0 0)
(1.4365e-26 0 0)
(1.27059e-27 0 0)
(1.11996e-28 0 0)
(9.88344e-30 0 0)
(8.76615e-31 0 0)
(7.73317e-32 0 0)
(6.91048e-33 0 0)
(6.09231e-34 0 0)
(5.31448e-35 0 0)
(4.69298e-36 0 0)
(4.16535e-37 0 0)
(3.65737e-38 0 0)
(3.20947e-39 0 0)
(2.81824e-40 0 0)
(2.45792e-41 0 0)
(2.17312e-42 0 0)
(1.88711e-43 0 0)
(1.64747e-44 0 0)
(1.444e-45 0 0)
(1.26419e-46 0 0)
(1.1147e-47 0 0)
(9.63577e-49 0 0)
(8.45927e-50 0 0)
(7.3826e-51 0 0)
(6.40866e-52 0 0)
(5.55994e-53 0 0)
(4.76715e-54 0 0)
(4.1225e-55 0 0)
(3.574e-56 0 0)
(3.08267e-57 0 0)
(2.66029e-58 0 0)
(2.30577e-59 0 0)
(1.82191e-60 0 0)
)
;

boundaryField
{
    inlet
    {
        type            fixedValue;
        value           uniform (0.005 0 0);
    }
    outlet
    {
        type            zeroGradient;
    }
    yzfaces
    {
        type            empty;
    }
}


// ************************************************************************* //
