/*--------------------------------*- C++ -*----------------------------------*\
| =========                 |                                                 |
| \\      /  F ield         | foam-extend: Open Source CFD                    |
|  \\    /   O peration     | Version:     5.0                                |
|   \\  /    A nd           | Web:         http://www.foam-extend.org         |
|    \\/     M anipulation  |                                                 |
\*---------------------------------------------------------------------------*/
FoamFile
{
    version     2.0;
    format      ascii;
    class       volScalarField;
    location    "10";
    object      alpha.water;
}
// * * * * * * * * * * * * * * * * * * * * * * * * * * * * * * * * * * * * * //

dimensions      [0 0 0 0 0 0 0];

internalField   nonuniform List<scalar> 
100
(
0.199921
0.199872
0.199827
0.199783
0.19974
0.199697
0.199655
0.199613
0.199572
0.19953
0.199489
0.199448
0.199406
0.199365
0.199324
0.199282
0.199241
0.199199
0.199158
0.199116
0.199074
0.199032
0.19899
0.198947
0.198904
0.198861
0.198817
0.198772
0.198728
0.198681
0.198634
0.198586
0.198537
0.198487
0.198434
0.198379
0.198322
0.19826
0.198193
0.198119
0.198036
0.197939
0.19782
0.19767
0.197463
0.197152
0.19663
0.195537
0.192474
0.182277
0.159299
0.130975
0.104408
0.0809769
0.061329
0.0452687
0.032865
0.0238309
0.017866
0.0141206
0.0121569
0.0110881
0.0105362
0.0102695
0.0101135
0.0100592
0.0100084
0.00994743
0.00988892
0.00996692
0.00997577
0.00993054
0.0099066
0.00990754
0.00997918
0.00991269
0.00988427
0.00994591
0.00995725
0.0100078
0.0100077
0.0100352
0.0100347
0.0100202
0.010042
0.0101221
0.0100678
0.0100467
0.0100988
0.0101517
0.0101921
0.0102277
0.0102506
0.0102704
0.010243
0.0102754
0.0103756
0.0103564
0.0105157
0.010692
)
;

boundaryField
{
    inlet
    {
        type            fixedValue;
        value           uniform 0.2;
    }
    outlet
    {
        type            zeroGradient;
    }
    yzfaces
    {
        type            empty;
    }
}


// ************************************************************************* //
