/*--------------------------------*- C++ -*----------------------------------*\
| =========                 |                                                 |
| \\      /  F ield         | foam-extend: Open Source CFD                    |
|  \\    /   O peration     | Version:     5.0                                |
|   \\  /    A nd           | Web:         http://www.foam-extend.org         |
|    \\/     M anipulation  |                                                 |
\*---------------------------------------------------------------------------*/
FoamFile
{
    version     2.0;
    format      ascii;
    class       volScalarField;
    location    "10";
    object      alpha.gas;
}
// * * * * * * * * * * * * * * * * * * * * * * * * * * * * * * * * * * * * * //

dimensions      [0 0 0 0 0 0 0];

internalField   nonuniform List<scalar> 
100
(
7.90358e-05
0.000127728
0.000173197
0.000217217
0.000260397
0.000303001
0.000345057
0.000386628
0.00042814
0.000469605
0.000511098
0.000552447
0.000593715
0.000634934
0.000676286
0.000717801
0.000759232
0.000800751
0.000842168
0.00088387
0.000925636
0.000967986
0.00101012
0.00105281
0.00109588
0.00113921
0.00118298
0.00122789
0.00127249
0.00131901
0.00136564
0.00141357
0.00146279
0.00151349
0.00156572
0.00162055
0.00167845
0.00174016
0.00180689
0.0018807
0.0019642
0.00206114
0.00217961
0.00232995
0.00253706
0.00284796
0.00337045
0.00446277
0.00752551
0.0177234
0.0407009
0.0690246
0.0955919
0.119023
0.138671
0.154731
0.167135
0.176169
0.182134
0.185879
0.187843
0.188912
0.189464
0.18973
0.189886
0.189941
0.189992
0.190053
0.190111
0.190033
0.190024
0.190069
0.190093
0.190092
0.190021
0.190087
0.190116
0.190054
0.190043
0.189992
0.189992
0.189965
0.189965
0.18998
0.189958
0.189878
0.189932
0.189953
0.189901
0.189848
0.189808
0.189772
0.189749
0.18973
0.189757
0.189725
0.189624
0.189644
0.189484
0.189308
)
;

boundaryField
{
    inlet
    {
        type            fixedValue;
        value           uniform 0;
    }
    outlet
    {
        type            zeroGradient;
    }
    yzfaces
    {
        type            empty;
    }
}


// ************************************************************************* //
