/*--------------------------------*- C++ -*----------------------------------*\
| =========                 |                                                 |
| \\      /  F ield         | foam-extend: Open Source CFD                    |
|  \\    /   O peration     | Version:     5.0                                |
|   \\  /    A nd           | Web:         http://www.foam-extend.org         |
|    \\/     M anipulation  |                                                 |
\*---------------------------------------------------------------------------*/
FoamFile
{
    version     2.0;
    format      ascii;
    class       volScalarField;
    location    "10";
    object      XCO2;
}
// * * * * * * * * * * * * * * * * * * * * * * * * * * * * * * * * * * * * * //

dimensions      [0 0 0 0 0 0 0];

internalField   nonuniform List<scalar> 
100
(
-0.000385086
-0.00301653
0.00267168
-0.00430602
0.00411174
-0.00415434
0.00461545
-0.00451125
0.00577755
-0.00608068
0.00763921
-0.00738947
0.00837809
-0.0070258
0.00729171
-0.00582204
0.00555689
-0.00469597
0.00370024
-0.00338559
0.0017968
-0.00188521
0.000654469
-0.00146812
0.00161748
-0.0030917
0.00376892
-0.00378509
0.0028684
-0.000167209
-0.00270204
0.00665889
-0.0101265
0.0124901
-0.0131746
0.01328
-0.00983182
0.00804922
-0.00492744
-0.00202555
-0.000627236
-0.00765518
0.000787119
0.00593399
0.0123396
0.0459379
0.0533121
0.1096
0.133932
0.186885
0.252482
0.284881
0.360627
0.415323
0.43496
0.477641
0.503473
0.493169
0.460476
0.511904
0.466651
0.526127
0.49435
0.460942
0.490427
0.530901
0.53838
0.42177
0.593681
0.496419
0.508953
0.446935
0.558837
0.501357
0.425301
0.556098
0.512299
0.512621
0.512633
0.587924
0.453641
0.495785
0.461518
0.514835
0.448632
0.510667
0.497575
0.446637
0.59345
0.48175
0.518625
0.477808
0.452436
0.524955
0.524971
0.517123
0.518054
0.504312
0.587564
0.187545
)
;

boundaryField
{
    inlet
    {
        type            fixedValue;
        value           uniform 0;
    }
    outlet
    {
        type            zeroGradient;
    }
    yzfaces
    {
        type            empty;
    }
}


// ************************************************************************* //
