/*--------------------------------*- C++ -*----------------------------------*\
| =========                 |                                                 |
| \\      /  F ield         | foam-extend: Open Source CFD                    |
|  \\    /   O peration     | Version:     5.0                                |
|   \\  /    A nd           | Web:         http://www.foam-extend.org         |
|    \\/     M anipulation  |                                                 |
\*---------------------------------------------------------------------------*/
FoamFile
{
    version     2.0;
    format      ascii;
    class       volScalarField;
    location    "7";
    object      S.gas;
}
// * * * * * * * * * * * * * * * * * * * * * * * * * * * * * * * * * * * * * //

dimensions      [0 0 0 0 0 0 0];

internalField   nonuniform List<scalar> 
100
(
0.000591847
0.000958063
0.00129952
0.00162965
0.00195339
0.00227435
0.00259381
0.00291221
0.00322991
0.0035479
0.00386644
0.00418723
0.00450862
0.00483483
0.00516264
0.00549708
0.00583492
0.0061827
0.00653532
0.00690414
0.0072842
0.00768132
0.00810301
0.00856493
0.00906163
0.00962799
0.0102945
0.0111093
0.0121822
0.0137351
0.0163089
0.0215275
0.0356234
0.0798406
0.186673
0.3257
0.459774
0.577774
0.680119
0.761617
0.826436
0.873439
0.907272
0.927474
0.937745
0.944486
0.947265
0.949493
0.949218
0.950237
0.949988
0.950597
0.94981
0.949353
0.949598
0.949231
0.949237
0.949406
0.949259
0.949147
0.949325
0.949254
0.949381
0.95018
0.949977
0.950146
0.950269
0.950312
0.950323
0.949918
0.950099
0.949987
0.950271
0.950131
0.949555
0.950656
0.950893
0.950775
0.950632
0.950168
0.950096
0.950018
0.949874
0.950081
0.949555
0.950587
0.950621
0.950295
0.949914
0.94925
0.949402
0.949009
0.949267
0.949152
0.949452
0.949363
0.948484
0.949116
0.948198
0.947632
)
;

boundaryField
{
    inlet
    {
        type            calculated;
        value           uniform 0;
    }
    outlet
    {
        type            calculated;
        value           uniform 0.947632;
    }
    yzfaces
    {
        type            empty;
    }
}


// ************************************************************************* //
