/*--------------------------------*- C++ -*----------------------------------*\
| =========                 |                                                 |
| \\      /  F ield         | foam-extend: Open Source CFD                    |
|  \\    /   O peration     | Version:     5.0                                |
|   \\  /    A nd           | Web:         http://www.foam-extend.org         |
|    \\/     M anipulation  |                                                 |
\*---------------------------------------------------------------------------*/
FoamFile
{
    version     2.0;
    format      ascii;
    class       volScalarField;
    location    "7";
    object      XCO2;
}
// * * * * * * * * * * * * * * * * * * * * * * * * * * * * * * * * * * * * * //

dimensions      [0 0 0 0 0 0 0];

internalField   nonuniform List<scalar> 
100
(
0
0.00224288
0
0.00344526
0.00335047
0.000948305
0.00218806
0.00359623
0.00413326
0
0.00945297
0
0.00919371
0.000790657
0.00521281
0.00641092
0.00434791
0.00948808
0.00908828
0.00604514
0.0075857
0.0110483
0.00308128
0.0168899
0
0.023562
0
0.0266236
0.00381479
0.0205915
0.0152294
0.0137628
0.0219259
0.0220722
0.0229534
0.0202197
0.0368429
0.034653
0.0419611
0.060404
0.0407294
0.0801622
0.0158869
0.0976648
0.0504882
0.0408528
0.0882215
0
0.113196
0.0254568
0.0717566
0
0.0894417
0.0944395
0
0.0805837
0.0341709
0.149998
0.0720457
0.0637316
0.0853327
0.0213612
0.115813
0.0876237
0.0232086
0.0273593
0.0227697
0.117343
0
0.0526728
0.00176027
0.149928
0.00125018
0.028207
0.128091
0.016252
0
0.0622909
0.00277933
0.0144679
0.130448
0.0262479
0.0624068
0.0532549
0.146522
0.00475787
0.00445693
0.109383
0.0178553
0.0990591
0.0316237
0.0464826
0.088361
0.0118561
0.0593318
0.0360368
0.0724302
0.0640087
0.0244741
0.469682
)
;

boundaryField
{
    inlet
    {
        type            fixedValue;
        value           uniform 0;
    }
    outlet
    {
        type            zeroGradient;
    }
    yzfaces
    {
        type            empty;
    }
}


// ************************************************************************* //
