/*--------------------------------*- C++ -*----------------------------------*\
| =========                 |                                                 |
| \\      /  F ield         | foam-extend: Open Source CFD                    |
|  \\    /   O peration     | Version:     5.0                                |
|   \\  /    A nd           | Web:         http://www.foam-extend.org         |
|    \\/     M anipulation  |                                                 |
\*---------------------------------------------------------------------------*/
FoamFile
{
    version     2.0;
    format      ascii;
    class       volScalarField;
    location    "7";
    object      XH2O;
}
// * * * * * * * * * * * * * * * * * * * * * * * * * * * * * * * * * * * * * //

dimensions      [0 0 0 0 0 0 0];

internalField   nonuniform List<scalar> 
100
(
1
0.997757
1
0.996555
0.99665
0.999052
0.997812
0.996404
0.995867
1
0.990547
1
0.990806
0.999209
0.994787
0.993589
0.995652
0.990512
0.990912
0.993955
0.992414
0.988952
0.996919
0.98311
1
0.976438
1
0.973376
0.996185
0.979408
0.984771
0.986237
0.978074
0.977928
0.977047
0.97978
0.963157
0.965347
0.958039
0.939596
0.959271
0.919838
0.984113
0.902335
0.949512
0.959147
0.911778
1
0.886804
0.974543
0.928243
1
0.910558
0.905561
1
0.919416
0.965829
0.850002
0.927954
0.936268
0.914667
0.978639
0.884187
0.912376
0.976791
0.972641
0.97723
0.882657
1
0.947327
0.99824
0.850072
0.99875
0.971793
0.871909
0.983748
1
0.937709
0.997221
0.985532
0.869552
0.973752
0.937593
0.946745
0.853478
0.995242
0.995543
0.890617
0.982145
0.900941
0.968376
0.953517
0.911639
0.988144
0.940668
0.963963
0.92757
0.935991
0.975526
0.530318
)
;

boundaryField
{
    inlet
    {
        type            fixedValue;
        value           uniform 1;
    }
    outlet
    {
        type            zeroGradient;
    }
    yzfaces
    {
        type            empty;
    }
}


// ************************************************************************* //
