/*--------------------------------*- C++ -*----------------------------------*\
| =========                 |                                                 |
| \\      /  F ield         | foam-extend: Open Source CFD                    |
|  \\    /   O peration     | Version:     5.0                                |
|   \\  /    A nd           | Web:         http://www.foam-extend.org         |
|    \\/     M anipulation  |                                                 |
\*---------------------------------------------------------------------------*/
FoamFile
{
    version     2.0;
    format      ascii;
    class       volScalarField;
    location    "4";
    object      alpha.water;
}
// * * * * * * * * * * * * * * * * * * * * * * * * * * * * * * * * * * * * * //

dimensions      [0 0 0 0 0 0 0];

internalField   nonuniform List<scalar> 
100
(
0.199766
0.19962
0.199482
0.199347
0.199212
0.199076
0.198937
0.198792
0.19864
0.198476
0.198295
0.198089
0.197834
0.197494
0.196972
0.195996
0.193642
0.186397
0.16712
0.139396
0.111816
0.0875493
0.0667322
0.0493881
0.0358253
0.0260334
0.0192401
0.0150559
0.012449
0.0111673
0.0105241
0.0101622
0.0100057
0.00994612
0.00985265
0.00979472
0.00976317
0.0098214
0.00986724
0.00993772
0.0100006
0.00990605
0.00989698
0.00987372
0.00992272
0.00997906
0.0099915
0.00989338
0.00996617
0.00995491
0.0100016
0.00997712
0.00989293
0.00994647
0.0099194
0.00998752
0.0100175
0.0100508
0.0100323
0.0101349
0.0101577
0.0100414
0.0101017
0.0100866
0.0100513
0.0100804
0.0101047
0.01009
0.0100106
0.00994712
0.0100505
0.0100295
0.0100809
0.00997695
0.00992281
0.00996664
0.00992355
0.00996189
0.0100051
0.00996643
0.0100714
0.0100879
0.0100773
0.0101804
0.0101607
0.0100781
0.0101104
0.00997647
0.0100083
0.0100083
0.00998709
0.0101657
0.0100903
0.0100073
0.0101769
0.0100787
0.0103222
0.0103429
0.0103373
0.0104128
)
;

boundaryField
{
    inlet
    {
        type            fixedValue;
        value           uniform 0.2;
    }
    outlet
    {
        type            zeroGradient;
    }
    yzfaces
    {
        type            empty;
    }
}


// ************************************************************************* //
