/*--------------------------------*- C++ -*----------------------------------*\
| =========                 |                                                 |
| \\      /  F ield         | foam-extend: Open Source CFD                    |
|  \\    /   O peration     | Version:     5.0                                |
|   \\  /    A nd           | Web:         http://www.foam-extend.org         |
|    \\/     M anipulation  |                                                 |
\*---------------------------------------------------------------------------*/
FoamFile
{
    version     2.0;
    format      ascii;
    class       volScalarField;
    location    "4";
    object      S.water;
}
// * * * * * * * * * * * * * * * * * * * * * * * * * * * * * * * * * * * * * //

dimensions      [0 0 0 0 0 0 0];

internalField   nonuniform List<scalar> 
100
(
0.998828
0.998099
0.99741
0.996735
0.996061
0.995381
0.994683
0.993961
0.993199
0.992382
0.991477
0.990444
0.989169
0.987468
0.98486
0.979979
0.96821
0.931987
0.835598
0.696978
0.559081
0.437746
0.333661
0.246941
0.179126
0.130167
0.0962004
0.0752797
0.0622448
0.0558364
0.0526206
0.0508109
0.0500287
0.0497306
0.0492632
0.0489736
0.0488159
0.049107
0.0493362
0.0496886
0.0500029
0.0495302
0.0494849
0.0493686
0.0496136
0.0498953
0.0499575
0.0494669
0.0498309
0.0497746
0.050008
0.0498856
0.0494647
0.0497324
0.049597
0.0499376
0.0500874
0.0502541
0.0501615
0.0506745
0.0507887
0.050207
0.0505087
0.0504328
0.0502565
0.050402
0.0505236
0.0504498
0.0500531
0.0497356
0.0502523
0.0501474
0.0504047
0.0498848
0.0496141
0.0498332
0.0496178
0.0498094
0.0500257
0.0498321
0.0503571
0.0504395
0.0503865
0.0509021
0.0508035
0.0503903
0.0505521
0.0498824
0.0500416
0.0500416
0.0499354
0.0508283
0.0504513
0.0500366
0.0508844
0.0503936
0.0516109
0.0517146
0.0516863
0.0520642
)
;

boundaryField
{
    inlet
    {
        type            calculated;
        value           uniform 1;
    }
    outlet
    {
        type            calculated;
        value           uniform 0.0520642;
    }
    yzfaces
    {
        type            empty;
    }
}


// ************************************************************************* //
