/*--------------------------------*- C++ -*----------------------------------*\
| =========                 |                                                 |
| \\      /  F ield         | foam-extend: Open Source CFD                    |
|  \\    /   O peration     | Version:     5.0                                |
|   \\  /    A nd           | Web:         http://www.foam-extend.org         |
|    \\/     M anipulation  |                                                 |
\*---------------------------------------------------------------------------*/
FoamFile
{
    version     2.0;
    format      ascii;
    class       volScalarField;
    location    "4";
    object      XCO2;
}
// * * * * * * * * * * * * * * * * * * * * * * * * * * * * * * * * * * * * * //

dimensions      [0 0 0 0 0 0 0];

internalField   nonuniform List<scalar> 
100
(
-0.00330625
0.00493738
-0.00452379
0.00508381
-0.00552772
0.00573081
-0.00379207
0.00146124
-0.000427252
-0.00463066
0.00827734
-0.00323451
0.00524481
-0.00666903
-0.0122378
-0.00451411
8.94091e-06
0.0320444
0.0877527
0.151336
0.224068
0.309999
0.349755
0.460112
0.457287
0.506777
0.497374
0.48656
0.517188
0.450055
0.507527
0.538264
0.544273
0.498227
0.479911
0.508037
0.559054
0.488523
0.520221
0.505703
0.503429
0.468174
0.549965
0.463658
0.482009
0.556203
0.485928
0.520912
0.494399
0.479368
0.504048
0.522628
0.486012
0.517503
0.513798
0.482978
0.497134
0.51089
0.459627
0.522015
0.444987
0.524278
0.511167
0.451565
0.526117
0.478692
0.494022
0.497922
0.531051
0.494868
0.513912
0.470761
0.510044
0.491299
0.49214
0.509403
0.497454
0.513016
0.493401
0.524643
0.515105
0.516597
0.462389
0.482711
0.501499
0.454985
0.509758
0.441518
0.583301
0.465671
0.55906
0.493575
0.441386
0.516605
0.511792
0.48624
0.551259
0.438731
0.585656
0.338167
)
;

boundaryField
{
    inlet
    {
        type            fixedValue;
        value           uniform 0;
    }
    outlet
    {
        type            zeroGradient;
    }
    yzfaces
    {
        type            empty;
    }
}


// ************************************************************************* //
