/*--------------------------------*- C++ -*----------------------------------*\
| =========                 |                                                 |
| \\      /  F ield         | foam-extend: Open Source CFD                    |
|  \\    /   O peration     | Version:     5.0                                |
|   \\  /    A nd           | Web:         http://www.foam-extend.org         |
|    \\/     M anipulation  |                                                 |
\*---------------------------------------------------------------------------*/
FoamFile
{
    version     2.0;
    format      ascii;
    class       volScalarField;
    location    "3";
    object      H2O.gas;
}
// * * * * * * * * * * * * * * * * * * * * * * * * * * * * * * * * * * * * * //

dimensions      [0 0 0 0 0 0 0];

internalField   nonuniform List<scalar> 
100
(
2.52469e-14
1.42732e-13
5.41762e-13
1.68182e-12
4.63536e-12
1.16428e-11
2.72555e-11
6.0288e-11
1.27256e-10
2.59009e-10
5.07125e-10
9.61766e-10
1.78276e-09
3.2191e-09
5.70759e-09
9.89162e-09
1.68572e-08
2.83006e-08
4.67364e-08
7.58522e-08
1.20951e-07
1.90507e-07
2.95587e-07
4.53729e-07
6.8862e-07
1.03115e-06
1.52774e-06
2.24307e-06
3.25119e-06
4.65778e-06
6.62378e-06
9.3222e-06
1.30048e-05
1.79535e-05
2.45438e-05
3.3206e-05
4.46168e-05
5.93928e-05
7.8438e-05
0.000102753
0.000133603
0.000172288
0.000220499
0.000279876
0.000352595
0.000441452
0.000548163
0.000676163
0.000827938
0.00100687
0.00121531
0.00145589
0.00173374
0.00204828
0.00240747
0.00280505
0.00325002
0.00373869
0.00427355
0.00485575
0.00547645
0.00614044
0.00683928
0.00757089
0.00832562
0.00909991
0.00988489
0.0106674
0.0114467
0.0122094
0.0129431
0.0136467
0.0143095
0.0149147
0.0154689
0.0159595
0.0163808
0.0167295
0.0170113
0.0172211
0.0173478
0.0174103
0.0173929
0.0173204
0.0171834
0.0169994
0.0167656
0.0164875
0.0161669
0.0158221
0.0154469
0.015059
0.0146649
0.0142638
0.0138669
0.0134742
0.0130906
0.0127252
0.012382
0.0120779
)
;

boundaryField
{
    inlet
    {
        type            fixedValue;
        value           uniform 0;
    }
    outlet
    {
        type            zeroGradient;
    }
    yzfaces
    {
        type            empty;
    }
}


// ************************************************************************* //
