/*--------------------------------*- C++ -*----------------------------------*\
| =========                 |                                                 |
| \\      /  F ield         | foam-extend: Open Source CFD                    |
|  \\    /   O peration     | Version:     5.0                                |
|   \\  /    A nd           | Web:         http://www.foam-extend.org         |
|    \\/     M anipulation  |                                                 |
\*---------------------------------------------------------------------------*/
FoamFile
{
    version     2.0;
    format      ascii;
    class       surfaceScalarField;
    location    "8";
    object      phi;
}
// * * * * * * * * * * * * * * * * * * * * * * * * * * * * * * * * * * * * * //

dimensions      [0 3 -1 0 0 0 0];

internalField   nonuniform List<scalar> 
99
(
1.22573e-06
1.22756e-06
1.23206e-06
1.22698e-06
1.22773e-06
1.22613e-06
1.22505e-06
1.22504e-06
1.22602e-06
1.21861e-06
1.22303e-06
1.22539e-06
1.22327e-06
1.21939e-06
1.22192e-06
1.22548e-06
1.22726e-06
1.22008e-06
1.21672e-06
1.21241e-06
1.21843e-06
1.22147e-06
1.22139e-06
1.21876e-06
1.21812e-06
1.22164e-06
1.22606e-06
1.22458e-06
1.2312e-06
1.22502e-06
1.23035e-06
1.22582e-06
1.22832e-06
1.22688e-06
1.22983e-06
1.23379e-06
1.23034e-06
1.23128e-06
1.23366e-06
1.2358e-06
1.23382e-06
1.23565e-06
1.23848e-06
1.23953e-06
1.23272e-06
1.23573e-06
1.23804e-06
1.23353e-06
1.23473e-06
1.23345e-06
1.23718e-06
1.23628e-06
1.23738e-06
1.2373e-06
1.23111e-06
1.23963e-06
1.23724e-06
1.24185e-06
1.23816e-06
1.24208e-06
1.24518e-06
1.24445e-06
1.24279e-06
1.24015e-06
1.23914e-06
1.23597e-06
1.2356e-06
1.23907e-06
1.23521e-06
1.23849e-06
1.23948e-06
1.23895e-06
1.23783e-06
1.23881e-06
1.23813e-06
1.2384e-06
1.23912e-06
1.23955e-06
1.23966e-06
1.23647e-06
1.23782e-06
1.2368e-06
1.23751e-06
1.23741e-06
1.23662e-06
1.23596e-06
1.23478e-06
1.23494e-06
1.23485e-06
1.23559e-06
1.23484e-06
1.23582e-06
1.2348e-06
1.23564e-06
1.23696e-06
1.23451e-06
1.23456e-06
1.23687e-06
1.23572e-06
)
;

boundaryField
{
    inlet
    {
        type            calculated;
        value           uniform -1.225e-06;
    }
    outlet
    {
        type            calculated;
        value           uniform 1.23407e-06;
    }
    yzfaces
    {
        type            empty;
    }
}


// ************************************************************************* //
