/*--------------------------------*- C++ -*----------------------------------*\
| =========                 |                                                 |
| \\      /  F ield         | foam-extend: Open Source CFD                    |
|  \\    /   O peration     | Version:     5.0                                |
|   \\  /    A nd           | Web:         http://www.foam-extend.org         |
|    \\/     M anipulation  |                                                 |
\*---------------------------------------------------------------------------*/
FoamFile
{
    version     2.0;
    format      ascii;
    class       volVectorField;
    location    "8";
    object      U.gas;
}
// * * * * * * * * * * * * * * * * * * * * * * * * * * * * * * * * * * * * * //

dimensions      [0 1 -1 0 0 0 0];

internalField   nonuniform List<vector> 
100
(
(0.011078 0 0)
(0.0112351 0 0)
(0.0113834 0 0)
(0.0115316 0 0)
(0.0116702 0 0)
(0.0118166 0 0)
(0.0119449 0 0)
(0.0120911 0 0)
(0.0122114 0 0)
(0.012321 0 0)
(0.012455 0 0)
(0.0126176 0 0)
(0.0127586 0 0)
(0.0128782 0 0)
(0.0130223 0 0)
(0.0131887 0 0)
(0.0133374 0 0)
(0.0134376 0 0)
(0.0135252 0 0)
(0.0136261 0 0)
(0.0137837 0 0)
(0.0139641 0 0)
(0.0140947 0 0)
(0.0142105 0 0)
(0.0143194 0 0)
(0.0144587 0 0)
(0.014631 0 0)
(0.0147542 0 0)
(0.014906 0 0)
(0.0150176 0 0)
(0.015144 0 0)
(0.015258 0 0)
(0.0153869 0 0)
(0.0154957 0 0)
(0.0156198 0 0)
(0.0157609 0 0)
(0.0158679 0 0)
(0.0159849 0 0)
(0.0161035 0 0)
(0.0162259 0 0)
(0.0163223 0 0)
(0.0164236 0 0)
(0.0165405 0 0)
(0.0166559 0 0)
(0.016724 0 0)
(0.0168068 0 0)
(0.0169211 0 0)
(0.0169881 0 0)
(0.0170574 0 0)
(0.0171612 0 0)
(0.0172809 0 0)
(0.0173775 0 0)
(0.0174545 0 0)
(0.0175352 0 0)
(0.0175711 0 0)
(0.0177095 0 0)
(0.0178137 0 0)
(0.0178944 0 0)
(0.0179707 0 0)
(0.0180822 0 0)
(0.0181893 0 0)
(0.0182626 0 0)
(0.0183254 0 0)
(0.0183773 0 0)
(0.0184167 0 0)
(0.0184596 0 0)
(0.0185277 0 0)
(0.0186202 0 0)
(0.018667 0 0)
(0.0187339 0 0)
(0.0188107 0 0)
(0.0188815 0 0)
(0.0189387 0 0)
(0.0190098 0 0)
(0.0190745 0 0)
(0.0191293 0 0)
(0.0191955 0 0)
(0.0192598 0 0)
(0.0193137 0 0)
(0.019346 0 0)
(0.0194069 0 0)
(0.0194557 0 0)
(0.0194986 0 0)
(0.0195523 0 0)
(0.0196028 0 0)
(0.0196451 0 0)
(0.0196871 0 0)
(0.0197364 0 0)
(0.0197782 0 0)
(0.0198231 0 0)
(0.0198833 0 0)
(0.0199311 0 0)
(0.0199804 0 0)
(0.0200217 0 0)
(0.0200717 0 0)
(0.0200917 0 0)
(0.0201241 0 0)
(0.0201622 0 0)
(0.0201605 0 0)
(0.0201136 0 0)
)
;

boundaryField
{
    inlet
    {
        type            fixedValue;
        value           uniform (0.005 0 0);
    }
    outlet
    {
        type            zeroGradient;
    }
    yzfaces
    {
        type            empty;
    }
}


// ************************************************************************* //
