/*--------------------------------*- C++ -*----------------------------------*\
| =========                 |                                                 |
| \\      /  F ield         | foam-extend: Open Source CFD                    |
|  \\    /   O peration     | Version:     5.0                                |
|   \\  /    A nd           | Web:         http://www.foam-extend.org         |
|    \\/     M anipulation  |                                                 |
\*---------------------------------------------------------------------------*/
FoamFile
{
    version     2.0;
    format      ascii;
    class       volScalarField;
    location    "8";
    object      YH2O;
}
// * * * * * * * * * * * * * * * * * * * * * * * * * * * * * * * * * * * * * //

dimensions      [0 0 0 0 0 0 0];

internalField   nonuniform List<scalar> 
100
(
-0.00340048
0.00332951
-0.000312728
0.00288657
0.000710039
0.00332035
-0.000993875
0.000858082
0.00200615
0.00209093
-0.00145788
0.00164963
-0.00116444
0.00345235
0.00154328
-5.18311e-07
0.00262678
0.00185024
0.000330722
0.000971331
-0.00166373
0.00180566
-0.00176223
0.00627992
-0.00434836
0.00395393
-0.00338714
0.00071956
0.0012683
-0.00121445
0.000873871
0.00121446
0.000475316
0.00211388
0.00124741
0.00124392
0.0021654
-0.00277877
0.00365882
-0.00354637
0.00239396
-0.00290571
0.00394503
-0.00201662
0.00170125
-0.00531406
0.00132403
-0.00535738
-7.11434e-05
-0.00325663
-0.00040119
-0.00346665
-0.00149356
-0.00226397
-0.000633214
-0.00365048
-0.000712372
-0.00177097
-0.00169402
-0.00144109
-0.00292505
-0.001417
-0.0019535
-0.00022052
-0.00292805
-0.000678635
-0.000156815
-0.000459333
0.000554034
-0.00138788
0.00168481
-0.00222129
0.0025624
-0.00306463
0.00113597
-0.00149719
-0.000824896
-0.000670528
6.98495e-05
-0.00191153
0.00129511
-0.00138165
0.002111
-0.00166359
-4.95958e-06
0.000907576
0.00063359
-0.000620403
-0.00116412
0.00101429
-0.00107252
0.000713013
7.79012e-06
-0.00137258
-0.000522605
-0.00132304
-0.000847389
-0.00160761
-0.00101739
-0.000857188
)
;

boundaryField
{
    inlet
    {
        type            calculated;
        value           uniform 0;
    }
    outlet
    {
        type            calculated;
        value           uniform -0.000857188;
    }
    yzfaces
    {
        type            empty;
    }
}


// ************************************************************************* //
