/*--------------------------------*- C++ -*----------------------------------*\
| =========                 |                                                 |
| \\      /  F ield         | foam-extend: Open Source CFD                    |
|  \\    /   O peration     | Version:     5.0                                |
|   \\  /    A nd           | Web:         http://www.foam-extend.org         |
|    \\/     M anipulation  |                                                 |
\*---------------------------------------------------------------------------*/
FoamFile
{
    version     2.0;
    format      ascii;
    class       volScalarField;
    location    "4";
    object      alpha.gas;
}
// * * * * * * * * * * * * * * * * * * * * * * * * * * * * * * * * * * * * * //

dimensions      [0 0 0 0 0 0 0];

internalField   nonuniform List<scalar> 
100
(
0.0813991
0.0795622
0.0778394
0.0761325
0.0744677
0.0729873
0.0714548
0.0698444
0.068669
0.0672004
0.0658737
0.0646128
0.0633829
0.062115
0.0609958
0.0599005
0.0589012
0.0578499
0.0567984
0.0558691
0.0549134
0.0540644
0.0532615
0.0524565
0.0514966
0.050731
0.0500201
0.0493523
0.0485676
0.047993
0.0472768
0.0466472
0.0460576
0.0453221
0.0447723
0.0442217
0.0436894
0.0431374
0.0426496
0.0421155
0.0416975
0.041133
0.0406911
0.0402435
0.0397292
0.0392567
0.0388097
0.0383826
0.0379529
0.0375085
0.0371629
0.0367187
0.0363594
0.0359541
0.0355693
0.0352049
0.0348301
0.0344292
0.034039
0.0336561
0.0333057
0.0329783
0.032612
0.0322211
0.0318915
0.0315086
0.0311719
0.0308105
0.0304705
0.0300908
0.0297692
0.0294502
0.0290266
0.0286797
0.0283275
0.0279401
0.0275887
0.0271711
0.0267903
0.0263451
0.0259532
0.0255021
0.0250302
0.0245452
0.0240201
0.0234681
0.0228811
0.0222111
0.0215003
0.0206842
0.0197517
0.0186591
0.0173495
0.01577
0.0137768
0.011241
0.00805301
0.00439011
0.00130856
0.000109826
)
;

boundaryField
{
    inlet
    {
        type            fixedValue;
        value           uniform 0.2;
    }
    outlet
    {
        type            zeroGradient;
    }
    yzfaces
    {
        type            empty;
    }
}


// ************************************************************************* //
