/*--------------------------------*- C++ -*----------------------------------*\
| =========                 |                                                 |
| \\      /  F ield         | foam-extend: Open Source CFD                    |
|  \\    /   O peration     | Version:     5.0                                |
|   \\  /    A nd           | Web:         http://www.foam-extend.org         |
|    \\/     M anipulation  |                                                 |
\*---------------------------------------------------------------------------*/
FoamFile
{
    version     2.0;
    format      ascii;
    class       volVectorField;
    location    "4";
    object      U.gas;
}
// * * * * * * * * * * * * * * * * * * * * * * * * * * * * * * * * * * * * * //

dimensions      [0 1 -1 0 0 0 0];

internalField   nonuniform List<vector> 
100
(
(0.0122508 0 0)
(0.0125027 0 0)
(0.0127304 0 0)
(0.0129406 0 0)
(0.0132255 0 0)
(0.0134635 0 0)
(0.0136796 0 0)
(0.0139781 0 0)
(0.0141413 0 0)
(0.0143474 0 0)
(0.014571 0 0)
(0.0147665 0 0)
(0.0149726 0 0)
(0.0152054 0 0)
(0.015406 0 0)
(0.0156008 0 0)
(0.0157821 0 0)
(0.0159694 0 0)
(0.0161597 0 0)
(0.0163355 0 0)
(0.0165416 0 0)
(0.0167145 0 0)
(0.0168545 0 0)
(0.0170197 0 0)
(0.0172868 0 0)
(0.0174708 0 0)
(0.0176003 0 0)
(0.0177095 0 0)
(0.0179149 0 0)
(0.0180633 0 0)
(0.0182227 0 0)
(0.0183643 0 0)
(0.018491 0 0)
(0.0186951 0 0)
(0.0188367 0 0)
(0.018962 0 0)
(0.0190851 0 0)
(0.0192296 0 0)
(0.019335 0 0)
(0.0194498 0 0)
(0.0195215 0 0)
(0.0196861 0 0)
(0.0197908 0 0)
(0.0198876 0 0)
(0.0200194 0 0)
(0.0201301 0 0)
(0.0202293 0 0)
(0.0203132 0 0)
(0.020401 0 0)
(0.0204883 0 0)
(0.0205291 0 0)
(0.0206341 0 0)
(0.0206819 0 0)
(0.020769 0 0)
(0.0208565 0 0)
(0.0209331 0 0)
(0.0210015 0 0)
(0.0210781 0 0)
(0.0211646 0 0)
(0.0212442 0 0)
(0.0212893 0 0)
(0.0213261 0 0)
(0.0213894 0 0)
(0.0214661 0 0)
(0.0215068 0 0)
(0.0215844 0 0)
(0.0216409 0 0)
(0.0217072 0 0)
(0.0217381 0 0)
(0.0218086 0 0)
(0.0218368 0 0)
(0.0218279 0 0)
(0.0218948 0 0)
(0.021926 0 0)
(0.0219476 0 0)
(0.0219888 0 0)
(0.0219934 0 0)
(0.0220446 0 0)
(0.0220523 0 0)
(0.0221011 0 0)
(0.0221041 0 0)
(0.0221328 0 0)
(0.0221436 0 0)
(0.0221367 0 0)
(0.0221413 0 0)
(0.0221163 0 0)
(0.0220821 0 0)
(0.0220719 0 0)
(0.022008 0 0)
(0.0219342 0 0)
(0.0218269 0 0)
(0.0216677 0 0)
(0.0214402 0 0)
(0.0210522 0 0)
(0.0204138 0 0)
(0.0193142 0 0)
(0.0174233 0 0)
(0.0147008 0 0)
(0.0123614 0 0)
(0.0115624 0 0)
)
;

boundaryField
{
    inlet
    {
        type            fixedValue;
        value           uniform (0.005 0 0);
    }
    outlet
    {
        type            zeroGradient;
    }
    yzfaces
    {
        type            empty;
    }
}


// ************************************************************************* //
