/*--------------------------------*- C++ -*----------------------------------*\
| =========                 |                                                 |
| \\      /  F ield         | foam-extend: Open Source CFD                    |
|  \\    /   O peration     | Version:     5.0                                |
|   \\  /    A nd           | Web:         http://www.foam-extend.org         |
|    \\/     M anipulation  |                                                 |
\*---------------------------------------------------------------------------*/
FoamFile
{
    version     2.0;
    format      ascii;
    class       volVectorField;
    location    "4";
    object      U.water;
}
// * * * * * * * * * * * * * * * * * * * * * * * * * * * * * * * * * * * * * //

dimensions      [0 1 -1 0 0 0 0];

internalField   nonuniform List<vector> 
100
(
(7.21207e-06 0 0)
(3.40691e-05 0 0)
(6.46536e-05 0 0)
(8.9661e-05 0 0)
(0.000129904 0 0)
(0.000162596 0 0)
(0.000174238 0 0)
(0.000226135 0 0)
(0.000259399 0 0)
(0.000269018 0 0)
(0.000309468 0 0)
(0.000340891 0 0)
(0.00036394 0 0)
(0.000397168 0 0)
(0.000435948 0 0)
(0.000469986 0 0)
(0.000498036 0 0)
(0.000518812 0 0)
(0.000553344 0 0)
(0.000585666 0 0)
(0.000617379 0 0)
(0.000654037 0 0)
(0.000681837 0 0)
(0.000697376 0 0)
(0.000730707 0 0)
(0.000778469 0 0)
(0.000811494 0 0)
(0.00083057 0 0)
(0.000863643 0 0)
(0.000896898 0 0)
(0.000919071 0 0)
(0.000955611 0 0)
(0.00097464 0 0)
(0.00100776 0 0)
(0.00105192 0 0)
(0.00107961 0 0)
(0.00110623 0 0)
(0.00113714 0 0)
(0.00116575 0 0)
(0.00119669 0 0)
(0.00122024 0 0)
(0.00124535 0 0)
(0.00128216 0 0)
(0.0013027 0 0)
(0.00132953 0 0)
(0.00136467 0 0)
(0.00139698 0 0)
(0.00142524 0 0)
(0.00145091 0 0)
(0.00148482 0 0)
(0.0015115 0 0)
(0.00153642 0 0)
(0.00156545 0 0)
(0.00159092 0 0)
(0.00162354 0 0)
(0.00165362 0 0)
(0.00167959 0 0)
(0.00170692 0 0)
(0.00173894 0 0)
(0.00177228 0 0)
(0.00180406 0 0)
(0.00183154 0 0)
(0.00185646 0 0)
(0.00188928 0 0)
(0.00192143 0 0)
(0.00195286 0 0)
(0.00198814 0 0)
(0.00202158 0 0)
(0.0020539 0 0)
(0.00208896 0 0)
(0.00212681 0 0)
(0.00214998 0 0)
(0.00218206 0 0)
(0.00222626 0 0)
(0.00225963 0 0)
(0.00229639 0 0)
(0.00233189 0 0)
(0.00237313 0 0)
(0.00241712 0 0)
(0.00246125 0 0)
(0.0025084 0 0)
(0.00255118 0 0)
(0.0026036 0 0)
(0.00265744 0 0)
(0.00271415 0 0)
(0.0027748 0 0)
(0.00284157 0 0)
(0.00291761 0 0)
(0.00300108 0 0)
(0.00309391 0 0)
(0.00320168 0 0)
(0.00332792 0 0)
(0.00348194 0 0)
(0.00367064 0 0)
(0.00390216 0 0)
(0.00419053 0 0)
(0.00452215 0 0)
(0.00482307 0 0)
(0.00499309 0 0)
(0.00504149 0 0)
)
;

boundaryField
{
    inlet
    {
        type            fixedValue;
        value           uniform (0 0 0);
    }
    outlet
    {
        type            zeroGradient;
    }
    yzfaces
    {
        type            empty;
    }
}


// ************************************************************************* //
