/*--------------------------------*- C++ -*----------------------------------*\
| =========                 |                                                 |
| \\      /  F ield         | foam-extend: Open Source CFD                    |
|  \\    /   O peration     | Version:     5.0                                |
|   \\  /    A nd           | Web:         http://www.foam-extend.org         |
|    \\/     M anipulation  |                                                 |
\*---------------------------------------------------------------------------*/
FoamFile
{
    version     2.0;
    format      ascii;
    class       volScalarField;
    location    "1";
    object      alpha.water;
}
// * * * * * * * * * * * * * * * * * * * * * * * * * * * * * * * * * * * * * //

dimensions      [0 0 0 0 0 0 0];

internalField   nonuniform List<scalar> 
100
(
0.196805
0.191427
0.17554
0.147278
0.117469
0.0901305
0.066614
0.0476414
0.0331324
0.0226685
0.0164365
0.0127331
0.0111986
0.0104522
0.0102109
0.0101089
0.0101337
0.0100209
0.0100564
0.0100837
0.0100976
0.00992522
0.0100603
0.0100472
0.0100382
0.00998793
0.00998842
0.0100759
0.010016
0.0101047
0.0099608
0.00995174
0.00986765
0.0099136
0.00987941
0.00995077
0.00996821
0.0100032
0.00995631
0.00989278
0.00995074
0.00996802
0.00991517
0.0098961
0.00988325
0.00985593
0.00992751
0.00984552
0.00982901
0.00997172
0.0099376
0.00997465
0.00994482
0.0100177
0.0100347
0.00999166
0.00999436
0.0100054
0.00992805
0.0099507
0.00995234
0.00990648
0.00992269
0.00991918
0.00995088
0.00986211
0.0099038
0.00995046
0.00990777
0.00991018
0.0099081
0.00989453
0.00999416
0.00998419
0.0100536
0.0100782
0.0101006
0.0100549
0.00996261
0.0099372
0.00995508
0.0099185
0.0100704
0.0100247
0.0100453
0.0100167
0.00999455
0.00996102
0.00987289
0.00992904
0.00995187
0.0100737
0.0100367
0.0100163
0.0100188
0.0100753
0.00985712
0.00999844
0.0100787
0.0101478
)
;

boundaryField
{
    inlet
    {
        type            fixedValue;
        value           uniform 0.2;
    }
    outlet
    {
        type            zeroGradient;
    }
    yzfaces
    {
        type            empty;
    }
}


// ************************************************************************* //
