/*--------------------------------*- C++ -*----------------------------------*\
| =========                 |                                                 |
| \\      /  F ield         | foam-extend: Open Source CFD                    |
|  \\    /   O peration     | Version:     5.0                                |
|   \\  /    A nd           | Web:         http://www.foam-extend.org         |
|    \\/     M anipulation  |                                                 |
\*---------------------------------------------------------------------------*/
FoamFile
{
    version     2.0;
    format      ascii;
    class       volScalarField;
    location    "1";
    object      XCO2;
}
// * * * * * * * * * * * * * * * * * * * * * * * * * * * * * * * * * * * * * //

dimensions      [0 0 0 0 0 0 0];

internalField   nonuniform List<scalar> 
100
(
9.19869e-05
0.00228735
0.000967364
0.0010849
0.0257612
0.00413768
0.0129934
0.00582479
0.0307655
0
0.0242474
0
0.0215229
0.0112175
0.0170884
0.00518475
0.0477624
0.00884208
0.00619655
0.0519743
0.0159543
0.00540986
0.0187804
0.0102258
0.0568837
0
0.00632979
0.026454
0
0.0609705
0.0388657
0.00598233
0
0.00551927
0.0073806
0.0143095
0.00852818
0.0180125
0.0612388
0
0.0215239
0.0257371
0.00830708
0.00138337
0.0376409
0
0.0193075
0.00363626
0
0.0276177
0.0142787
0.010042
0.0148931
0.018555
0.0266259
0.0257033
0.0240377
0.00745004
0.028007
0.0045457
0.0279837
0.00999488
0.00209074
0.0466149
0.0233541
0
0.0106256
0.022289
0.00218099
0.00202071
0.00037362
0.013945
0.0169096
0.00354853
0.0283401
0.0224779
0.0208348
0.00683271
0.0333684
0.00344985
0.00426696
2.01656e-05
0.0497051
0.0253184
0.0169929
0.010307
0.0307632
0.0287632
0
0.0869489
0
0.0457871
0.03743
0.00259566
0.0144567
0.0311201
0
0.0156826
0.0107385
0.06236
)
;

boundaryField
{
    inlet
    {
        type            fixedValue;
        value           uniform 0;
    }
    outlet
    {
        type            zeroGradient;
    }
    yzfaces
    {
        type            empty;
    }
}


// ************************************************************************* //
