/*--------------------------------*- C++ -*----------------------------------*\
| =========                 |                                                 |
| \\      /  F ield         | foam-extend: Open Source CFD                    |
|  \\    /   O peration     | Version:     5.0                                |
|   \\  /    A nd           | Web:         http://www.foam-extend.org         |
|    \\/     M anipulation  |                                                 |
\*---------------------------------------------------------------------------*/
FoamFile
{
    version     2.0;
    format      ascii;
    class       volScalarField;
    location    "1";
    object      XH2O;
}
// * * * * * * * * * * * * * * * * * * * * * * * * * * * * * * * * * * * * * //

dimensions      [0 0 0 0 0 0 0];

internalField   nonuniform List<scalar> 
100
(
0.999908
0.997713
0.999033
0.998915
0.974239
0.995862
0.987007
0.994175
0.969235
1
0.975753
1
0.978477
0.988782
0.982912
0.994815
0.952238
0.991158
0.993803
0.948026
0.984046
0.99459
0.98122
0.989774
0.943116
1
0.99367
0.973546
1
0.939029
0.961134
0.994018
1
0.994481
0.992619
0.985691
0.991472
0.981988
0.938761
1
0.978476
0.974263
0.991693
0.998617
0.962359
1
0.980693
0.996364
1
0.972382
0.985721
0.989958
0.985107
0.981445
0.973374
0.974297
0.975962
0.99255
0.971993
0.995454
0.972016
0.990005
0.997909
0.953385
0.976646
1
0.989374
0.977711
0.997819
0.997979
0.999626
0.986055
0.98309
0.996451
0.97166
0.977522
0.979165
0.993167
0.966632
0.99655
0.995733
0.99998
0.950295
0.974682
0.983007
0.989693
0.969237
0.971237
1
0.913051
1
0.954213
0.96257
0.997404
0.985543
0.96888
1
0.984317
0.989261
0.93764
)
;

boundaryField
{
    inlet
    {
        type            fixedValue;
        value           uniform 1;
    }
    outlet
    {
        type            zeroGradient;
    }
    yzfaces
    {
        type            empty;
    }
}


// ************************************************************************* //
