/*--------------------------------*- C++ -*----------------------------------*\
| =========                 |                                                 |
| \\      /  F ield         | foam-extend: Open Source CFD                    |
|  \\    /   O peration     | Version:     5.0                                |
|   \\  /    A nd           | Web:         http://www.foam-extend.org         |
|    \\/     M anipulation  |                                                 |
\*---------------------------------------------------------------------------*/
FoamFile
{
    version     2.0;
    format      ascii;
    class       volScalarField;
    location    "4";
    object      alpha.gas;
}
// * * * * * * * * * * * * * * * * * * * * * * * * * * * * * * * * * * * * * //

dimensions      [0 0 0 0 0 0 0];

internalField   nonuniform List<scalar> 
100
(
0.0812988
0.0795272
0.0778212
0.0761543
0.0744131
0.0727593
0.0713526
0.0698291
0.0683738
0.0668298
0.0655775
0.064307
0.0630719
0.0619026
0.0607484
0.0597212
0.0586717
0.057599
0.0567337
0.0556806
0.0547848
0.0537781
0.0530758
0.0522278
0.0514191
0.0506597
0.049956
0.0491589
0.0484871
0.047881
0.0471577
0.0465459
0.045903
0.0452653
0.0446402
0.0440679
0.0435051
0.0429467
0.0424282
0.0419225
0.0414207
0.0409527
0.0405017
0.0399928
0.0395458
0.0390736
0.0386331
0.0381841
0.0377174
0.0372973
0.0369066
0.0364965
0.0360813
0.0356887
0.0353026
0.0349082
0.0345205
0.0341742
0.0337648
0.0334298
0.0330734
0.0326676
0.0323227
0.031982
0.031627
0.0312462
0.0309239
0.0305154
0.0301708
0.0297898
0.0294377
0.0290482
0.0287168
0.0283181
0.0279423
0.0275577
0.0271735
0.0267697
0.0263391
0.0259217
0.0254837
0.0250243
0.0245573
0.0240109
0.0234629
0.0228752
0.0222054
0.021479
0.0206544
0.0197205
0.0186333
0.0173293
0.0157186
0.0137094
0.0111469
0.00791294
0.00421871
0.00119952
9.10238e-05
5.03944e-07
)
;

boundaryField
{
    inlet
    {
        type            fixedValue;
        value           uniform 0.2;
    }
    outlet
    {
        type            zeroGradient;
    }
    yzfaces
    {
        type            empty;
    }
}


// ************************************************************************* //
