/*--------------------------------*- C++ -*----------------------------------*\
| =========                 |                                                 |
| \\      /  F ield         | foam-extend: Open Source CFD                    |
|  \\    /   O peration     | Version:     5.0                                |
|   \\  /    A nd           | Web:         http://www.foam-extend.org         |
|    \\/     M anipulation  |                                                 |
\*---------------------------------------------------------------------------*/
FoamFile
{
    version     2.0;
    format      ascii;
    class       surfaceScalarField;
    location    "4";
    object      phi;
}
// * * * * * * * * * * * * * * * * * * * * * * * * * * * * * * * * * * * * * //

dimensions      [0 3 -1 0 0 0 0];

internalField   nonuniform List<scalar> 
99
(
1.22494e-06
1.22706e-06
1.22321e-06
1.2176e-06
1.22118e-06
1.22737e-06
1.22362e-06
1.22334e-06
1.21885e-06
1.22947e-06
1.22345e-06
1.22309e-06
1.22217e-06
1.22269e-06
1.22489e-06
1.22347e-06
1.22159e-06
1.22925e-06
1.21914e-06
1.22713e-06
1.22308e-06
1.2356e-06
1.22667e-06
1.23048e-06
1.23135e-06
1.23072e-06
1.22555e-06
1.23015e-06
1.23254e-06
1.22398e-06
1.228e-06
1.22236e-06
1.22174e-06
1.22256e-06
1.22436e-06
1.22407e-06
1.22313e-06
1.2252e-06
1.2241e-06
1.22388e-06
1.22576e-06
1.22513e-06
1.22087e-06
1.22478e-06
1.22301e-06
1.22365e-06
1.22169e-06
1.22108e-06
1.22419e-06
1.22489e-06
1.22235e-06
1.2226e-06
1.22428e-06
1.22325e-06
1.22245e-06
1.22424e-06
1.22553e-06
1.22306e-06
1.22725e-06
1.22544e-06
1.22366e-06
1.22811e-06
1.2264e-06
1.22584e-06
1.22517e-06
1.22713e-06
1.22111e-06
1.22589e-06
1.22497e-06
1.22646e-06
1.22455e-06
1.2275e-06
1.22308e-06
1.22534e-06
1.22448e-06
1.2241e-06
1.22216e-06
1.22271e-06
1.22563e-06
1.22481e-06
1.22477e-06
1.22527e-06
1.22281e-06
1.22633e-06
1.2269e-06
1.22491e-06
1.22663e-06
1.22538e-06
1.22773e-06
1.22738e-06
1.22651e-06
1.22545e-06
1.22728e-06
1.22682e-06
1.22548e-06
1.22476e-06
1.2263e-06
1.22567e-06
1.22467e-06
)
;

boundaryField
{
    inlet
    {
        type            calculated;
        value           uniform -1.225e-06;
    }
    outlet
    {
        type            calculated;
        value           uniform 1.22562e-06;
    }
    yzfaces
    {
        type            empty;
    }
}


// ************************************************************************* //
