/*--------------------------------*- C++ -*----------------------------------*\
| =========                 |                                                 |
| \\      /  F ield         | foam-extend: Open Source CFD                    |
|  \\    /   O peration     | Version:     5.0                                |
|   \\  /    A nd           | Web:         http://www.foam-extend.org         |
|    \\/     M anipulation  |                                                 |
\*---------------------------------------------------------------------------*/
FoamFile
{
    version     2.0;
    format      ascii;
    class       volVectorField;
    location    "4";
    object      U.gas;
}
// * * * * * * * * * * * * * * * * * * * * * * * * * * * * * * * * * * * * * //

dimensions      [0 1 -1 0 0 0 0];

internalField   nonuniform List<vector> 
100
(
(0.0122805 0 0)
(0.0125208 0 0)
(0.0127409 0 0)
(0.0129405 0 0)
(0.0131915 0 0)
(0.0134554 0 0)
(0.0136734 0 0)
(0.0139104 0 0)
(0.0141312 0 0)
(0.0144067 0 0)
(0.0146106 0 0)
(0.0148023 0 0)
(0.0150081 0 0)
(0.0152127 0 0)
(0.0154298 0 0)
(0.0156168 0 0)
(0.015815 0 0)
(0.016041 0 0)
(0.016193 0 0)
(0.0164119 0 0)
(0.0166151 0 0)
(0.0168616 0 0)
(0.0169973 0 0)
(0.0171763 0 0)
(0.0173708 0 0)
(0.0175219 0 0)
(0.0176457 0 0)
(0.0178232 0 0)
(0.0179827 0 0)
(0.0180837 0 0)
(0.0182273 0 0)
(0.0183337 0 0)
(0.0184449 0 0)
(0.018592 0 0)
(0.0187442 0 0)
(0.0188712 0 0)
(0.0189894 0 0)
(0.0191199 0 0)
(0.0192335 0 0)
(0.0193344 0 0)
(0.0194552 0 0)
(0.0195596 0 0)
(0.0196304 0 0)
(0.019749 0 0)
(0.0198511 0 0)
(0.0199503 0 0)
(0.0200285 0 0)
(0.0201142 0 0)
(0.0202339 0 0)
(0.0203309 0 0)
(0.0203903 0 0)
(0.0204674 0 0)
(0.0205661 0 0)
(0.0206391 0 0)
(0.0207006 0 0)
(0.0207887 0 0)
(0.0208772 0 0)
(0.0209284 0 0)
(0.021028 0 0)
(0.0210797 0 0)
(0.0211342 0 0)
(0.021234 0 0)
(0.0212831 0 0)
(0.0213181 0 0)
(0.0213754 0 0)
(0.021443 0 0)
(0.0214431 0 0)
(0.0215162 0 0)
(0.0215676 0 0)
(0.0216285 0 0)
(0.0216575 0 0)
(0.0217131 0 0)
(0.0217132 0 0)
(0.02176 0 0)
(0.0217871 0 0)
(0.0218036 0 0)
(0.0218061 0 0)
(0.0218268 0 0)
(0.0218821 0 0)
(0.0219033 0 0)
(0.0219108 0 0)
(0.0219197 0 0)
(0.0219085 0 0)
(0.0219424 0 0)
(0.0219455 0 0)
(0.0219202 0 0)
(0.021904 0 0)
(0.0218538 0 0)
(0.0217974 0 0)
(0.0217067 0 0)
(0.0215456 0 0)
(0.021307 0 0)
(0.020952 0 0)
(0.020329 0 0)
(0.0192218 0 0)
(0.0173277 0 0)
(0.0146452 0 0)
(0.0124095 0 0)
(0.0117143 0 0)
(0.00588058 0 0)
)
;

boundaryField
{
    inlet
    {
        type            fixedValue;
        value           uniform (0.005 0 0);
    }
    outlet
    {
        type            zeroGradient;
    }
    yzfaces
    {
        type            empty;
    }
}


// ************************************************************************* //
