/*--------------------------------*- C++ -*----------------------------------*\
| =========                 |                                                 |
| \\      /  F ield         | foam-extend: Open Source CFD                    |
|  \\    /   O peration     | Version:     5.0                                |
|   \\  /    A nd           | Web:         http://www.foam-extend.org         |
|    \\/     M anipulation  |                                                 |
\*---------------------------------------------------------------------------*/
FoamFile
{
    version     2.0;
    format      ascii;
    class       volVectorField;
    location    "4";
    object      U.water;
}
// * * * * * * * * * * * * * * * * * * * * * * * * * * * * * * * * * * * * * //

dimensions      [0 1 -1 0 0 0 0];

internalField   nonuniform List<vector> 
100
(
(1.33501e-05 0 0)
(4.20814e-05 0 0)
(7.03686e-05 0 0)
(8.70169e-05 0 0)
(0.000109919 0 0)
(0.000160363 0 0)
(0.000192557 0 0)
(0.000210546 0 0)
(0.000232527 0 0)
(0.000274243 0 0)
(0.000320369 0 0)
(0.000344134 0 0)
(0.000375934 0 0)
(0.000406937 0 0)
(0.000442914 0 0)
(0.000475321 0 0)
(0.000495915 0 0)
(0.000536478 0 0)
(0.000562981 0 0)
(0.000586588 0 0)
(0.000618577 0 0)
(0.000661709 0 0)
(0.000700127 0 0)
(0.000716236 0 0)
(0.000751366 0 0)
(0.000785269 0 0)
(0.000806771 0 0)
(0.000836353 0 0)
(0.000879462 0 0)
(0.000899248 0 0)
(0.000924149 0 0)
(0.00095657 0 0)
(0.00097933 0 0)
(0.00100882 0 0)
(0.00104272 0 0)
(0.00107575 0 0)
(0.00110367 0 0)
(0.00113453 0 0)
(0.00116566 0 0)
(0.00119327 0 0)
(0.00122339 0 0)
(0.00125337 0 0)
(0.00127464 0 0)
(0.00130248 0 0)
(0.00133415 0 0)
(0.00136155 0 0)
(0.00139021 0 0)
(0.00141523 0 0)
(0.00144748 0 0)
(0.00148331 0 0)
(0.00151041 0 0)
(0.00153482 0 0)
(0.00156588 0 0)
(0.00159703 0 0)
(0.00162393 0 0)
(0.00165334 0 0)
(0.0016873 0 0)
(0.00171392 0 0)
(0.00174524 0 0)
(0.00177948 0 0)
(0.0018011 0 0)
(0.00183502 0 0)
(0.00187213 0 0)
(0.0018993 0 0)
(0.00192651 0 0)
(0.00196101 0 0)
(0.00198831 0 0)
(0.00201905 0 0)
(0.00205876 0 0)
(0.00209315 0 0)
(0.00212749 0 0)
(0.00216502 0 0)
(0.0021993 0 0)
(0.00223176 0 0)
(0.00227334 0 0)
(0.00231131 0 0)
(0.00234876 0 0)
(0.00238763 0 0)
(0.0024356 0 0)
(0.00248398 0 0)
(0.00252961 0 0)
(0.00258032 0 0)
(0.0026288 0 0)
(0.00268649 0 0)
(0.00275531 0 0)
(0.00281897 0 0)
(0.00289234 0 0)
(0.0029768 0 0)
(0.0030726 0 0)
(0.00318406 0 0)
(0.00330889 0 0)
(0.00345739 0 0)
(0.00364539 0 0)
(0.00388089 0 0)
(0.00416553 0 0)
(0.00449267 0 0)
(0.00479438 0 0)
(0.00495934 0 0)
(0.00499763 0 0)
(0.00500057 0 0)
)
;

boundaryField
{
    inlet
    {
        type            fixedValue;
        value           uniform (0 0 0);
    }
    outlet
    {
        type            zeroGradient;
    }
    yzfaces
    {
        type            empty;
    }
}


// ************************************************************************* //
