/*--------------------------------*- C++ -*----------------------------------*\
| =========                 |                                                 |
| \\      /  F ield         | foam-extend: Open Source CFD                    |
|  \\    /   O peration     | Version:     5.0                                |
|   \\  /    A nd           | Web:         http://www.foam-extend.org         |
|    \\/     M anipulation  |                                                 |
\*---------------------------------------------------------------------------*/
FoamFile
{
    version     2.0;
    format      ascii;
    class       volVectorField;
    location    "5";
    object      U.water;
}
// * * * * * * * * * * * * * * * * * * * * * * * * * * * * * * * * * * * * * //

dimensions      [0 1 -1 0 0 0 0];

internalField   nonuniform List<vector> 
100
(
(1.08852e-05 0 0)
(3.02825e-05 0 0)
(5.23019e-05 0 0)
(8.02215e-05 0 0)
(0.000114655 0 0)
(0.000141498 0 0)
(0.000153578 0 0)
(0.0001779 0 0)
(0.000200319 0 0)
(0.00021341 0 0)
(0.000247376 0 0)
(0.000276493 0 0)
(0.000299339 0 0)
(0.000333066 0 0)
(0.000358071 0 0)
(0.000382793 0 0)
(0.000409469 0 0)
(0.000434099 0 0)
(0.000454229 0 0)
(0.000484152 0 0)
(0.000513642 0 0)
(0.000527635 0 0)
(0.00055109 0 0)
(0.000580436 0 0)
(0.000603379 0 0)
(0.000628605 0 0)
(0.000658202 0 0)
(0.00067916 0 0)
(0.000702458 0 0)
(0.000726239 0 0)
(0.000750789 0 0)
(0.000781846 0 0)
(0.000803227 0 0)
(0.000824844 0 0)
(0.000851267 0 0)
(0.000874483 0 0)
(0.000899776 0 0)
(0.000928387 0 0)
(0.000946272 0 0)
(0.000967426 0 0)
(0.000988175 0 0)
(0.00101237 0 0)
(0.00104163 0 0)
(0.00106087 0 0)
(0.00108522 0 0)
(0.0011061 0 0)
(0.00112732 0 0)
(0.00115241 0 0)
(0.00117607 0 0)
(0.00119717 0 0)
(0.00121837 0 0)
(0.00124132 0 0)
(0.00126823 0 0)
(0.00128941 0 0)
(0.00131206 0 0)
(0.00133969 0 0)
(0.00135878 0 0)
(0.00137958 0 0)
(0.00140343 0 0)
(0.00142355 0 0)
(0.00144647 0 0)
(0.00147004 0 0)
(0.00148963 0 0)
(0.00150974 0 0)
(0.00153065 0 0)
(0.00155307 0 0)
(0.00157621 0 0)
(0.001599 0 0)
(0.00162171 0 0)
(0.00164127 0 0)
(0.00166482 0 0)
(0.00168742 0 0)
(0.0017072 0 0)
(0.0017292 0 0)
(0.00175314 0 0)
(0.00177584 0 0)
(0.0017937 0 0)
(0.00181545 0 0)
(0.00183842 0 0)
(0.00185779 0 0)
(0.00187936 0 0)
(0.00190403 0 0)
(0.00192546 0 0)
(0.00194893 0 0)
(0.00197281 0 0)
(0.00199001 0 0)
(0.00201363 0 0)
(0.0020346 0 0)
(0.00205543 0 0)
(0.00208108 0 0)
(0.00210506 0 0)
(0.00212741 0 0)
(0.00215008 0 0)
(0.0021751 0 0)
(0.00219633 0 0)
(0.00221876 0 0)
(0.00224516 0 0)
(0.00226805 0 0)
(0.00228877 0 0)
(0.00231543 0 0)
)
;

boundaryField
{
    inlet
    {
        type            fixedValue;
        value           uniform (0 0 0);
    }
    outlet
    {
        type            zeroGradient;
    }
    yzfaces
    {
        type            empty;
    }
}


// ************************************************************************* //
