/*--------------------------------*- C++ -*----------------------------------*\
| =========                 |                                                 |
| \\      /  F ield         | foam-extend: Open Source CFD                    |
|  \\    /   O peration     | Version:     5.0                                |
|   \\  /    A nd           | Web:         http://www.foam-extend.org         |
|    \\/     M anipulation  |                                                 |
\*---------------------------------------------------------------------------*/
FoamFile
{
    version     2.0;
    format      ascii;
    class       volScalarField;
    location    "5";
    object      YH2O;
}
// * * * * * * * * * * * * * * * * * * * * * * * * * * * * * * * * * * * * * //

dimensions      [0 0 0 0 0 0 0];

internalField   nonuniform List<scalar> 
100
(
0.00355176
-0.00216462
0.00235927
-0.00354661
-0.00359334
0.00142746
0.00127734
-0.0017894
0.00222592
-0.000679992
-0.000116784
0.00122481
0.000483403
0.00191049
-0.00340815
-0.00165415
-0.00286111
-0.000760188
-0.000753561
-0.00069309
0.00065868
-0.000342326
0.00158034
-0.00294213
0.00154137
-7.82412e-05
0.00151444
0.00186426
0.00225711
-0.00130502
0.00292345
-0.00255369
0.000406827
-0.00152456
-0.00154235
-5.56705e-05
-0.00149061
0.000171906
-0.00190138
-0.00071126
-0.00306059
-0.00120066
-0.00131352
-5.51823e-05
-0.000324223
0.00075941
0.000980828
0.00099379
3.07814e-05
0.000614565
0.000467314
0.00236501
0.000230057
0.00132595
-0.000364928
0.00139467
0.000270657
0.000372953
0.000810552
-0.000363314
-5.73429e-05
-0.00149847
-0.00028594
-0.000959989
0.000365323
-5.3615e-05
0.00197608
0.00140256
-0.00136961
0.00273343
-0.00312424
0.00462223
-0.00418115
0.00485903
-0.00560666
0.00479208
-0.00612629
0.0061654
-0.00824377
0.0080637
-0.0100821
0.00935634
-0.0116409
0.0105543
-0.0115245
0.0107856
-0.0112556
0.0108722
-0.0107228
0.00888402
-0.00934811
0.00668772
-0.00824446
0.00458001
-0.00602561
0.00241113
-0.00406097
0.00132867
-0.0030469
0.00198883
)
;

boundaryField
{
    inlet
    {
        type            calculated;
        value           uniform 0;
    }
    outlet
    {
        type            calculated;
        value           uniform 0.00198883;
    }
    yzfaces
    {
        type            empty;
    }
}


// ************************************************************************* //
