/*--------------------------------*- C++ -*----------------------------------*\
| =========                 |                                                 |
| \\      /  F ield         | foam-extend: Open Source CFD                    |
|  \\    /   O peration     | Version:     5.0                                |
|   \\  /    A nd           | Web:         http://www.foam-extend.org         |
|    \\/     M anipulation  |                                                 |
\*---------------------------------------------------------------------------*/
FoamFile
{
    version     2.0;
    format      ascii;
    class       volScalarField;
    location    "10";
    object      alpha.water;
}
// * * * * * * * * * * * * * * * * * * * * * * * * * * * * * * * * * * * * * //

dimensions      [0 0 0 0 0 0 0];

internalField   nonuniform List<scalar> 
100
(
0.199925
0.199879
0.199836
0.199794
0.199754
0.199715
0.199677
0.199637
0.199597
0.199558
0.199519
0.199479
0.199439
0.199401
0.199361
0.199323
0.199283
0.199244
0.199206
0.199168
0.199128
0.199087
0.199047
0.199006
0.198965
0.198926
0.198888
0.198848
0.198808
0.198769
0.198728
0.198687
0.198644
0.1986
0.198555
0.198509
0.198461
0.198411
0.198361
0.198309
0.198254
0.198195
0.198129
0.198054
0.197968
0.197862
0.197727
0.19754
0.19726
0.196774
0.195724
0.192347
0.16784
0.0405611
0.0100804
0.00994668
0.0100126
0.00996711
0.0100195
0.0100164
0.00999197
0.0100449
0.0099428
0.0100158
0.00997096
0.00998771
0.0100142
0.0100454
0.0100944
0.00992227
0.00999213
0.00996915
0.0099711
0.0100157
0.0100644
0.00999826
0.00999258
0.0100164
0.00994235
0.00996476
0.00999579
0.0100457
0.00997095
0.00999282
0.00999058
0.0100422
0.00996851
0.0100463
0.00996677
0.00994638
0.00999314
0.00996455
0.0099192
0.00997252
0.00997034
0.0100482
0.0100433
0.0100224
0.00998918
0.0100011
)
;

boundaryField
{
    inlet
    {
        type            fixedValue;
        value           uniform 0.2;
    }
    outlet
    {
        type            zeroGradient;
    }
    yzfaces
    {
        type            empty;
    }
}


// ************************************************************************* //
