/*--------------------------------*- C++ -*----------------------------------*\
| =========                 |                                                 |
| \\      /  F ield         | foam-extend: Open Source CFD                    |
|  \\    /   O peration     | Version:     5.0                                |
|   \\  /    A nd           | Web:         http://www.foam-extend.org         |
|    \\/     M anipulation  |                                                 |
\*---------------------------------------------------------------------------*/
FoamFile
{
    version     2.0;
    format      ascii;
    class       volScalarField;
    location    "10";
    object      alpha.gas;
}
// * * * * * * * * * * * * * * * * * * * * * * * * * * * * * * * * * * * * * //

dimensions      [0 0 0 0 0 0 0];

internalField   nonuniform List<scalar> 
100
(
7.48754e-05
0.000120923
0.000164499
0.000206246
0.000245768
0.000285202
0.000323163
0.000363143
0.000402984
0.000441831
0.000481245
0.000520916
0.000561206
0.000599354
0.000638957
0.00067745
0.000716913
0.000756419
0.000793853
0.000832486
0.000872425
0.000912591
0.000953088
0.000993559
0.00103461
0.00107408
0.00111246
0.00115192
0.00119151
0.00123085
0.00127173
0.0013135
0.00135639
0.00139984
0.00144483
0.00149077
0.00153864
0.00158882
0.00163948
0.00169141
0.00174579
0.0018052
0.00187124
0.00194556
0.002032
0.00213807
0.00227336
0.00246037
0.00273991
0.00322612
0.00427604
0.00765297
0.0321599
0.159439
0.18992
0.190053
0.189987
0.190033
0.18998
0.189984
0.190008
0.189955
0.190057
0.189984
0.190029
0.190012
0.189986
0.189955
0.189906
0.190078
0.190008
0.190031
0.190029
0.189984
0.189936
0.190002
0.190007
0.189984
0.190058
0.190035
0.190004
0.189954
0.190029
0.190007
0.190009
0.189958
0.190031
0.189954
0.190033
0.190054
0.190007
0.190035
0.190081
0.190027
0.19003
0.189952
0.189957
0.189978
0.190011
0.189999
)
;

boundaryField
{
    inlet
    {
        type            fixedValue;
        value           uniform 0;
    }
    outlet
    {
        type            zeroGradient;
    }
    yzfaces
    {
        type            empty;
    }
}


// ************************************************************************* //
