/*--------------------------------*- C++ -*----------------------------------*\
| =========                 |                                                 |
| \\      /  F ield         | foam-extend: Open Source CFD                    |
|  \\    /   O peration     | Version:     5.0                                |
|   \\  /    A nd           | Web:         http://www.foam-extend.org         |
|    \\/     M anipulation  |                                                 |
\*---------------------------------------------------------------------------*/
FoamFile
{
    version     2.0;
    format      ascii;
    class       volScalarField;
    location    "10";
    object      CO2.water;
}
// * * * * * * * * * * * * * * * * * * * * * * * * * * * * * * * * * * * * * //

dimensions      [0 0 0 0 0 0 0];

internalField   nonuniform List<scalar> 
100
(
1.25136e-20
4.66801e-19
8.77857e-18
1.11229e-16
1.06835e-15
8.27173e-15
5.39003e-14
3.03067e-13
1.50555e-12
6.71046e-12
2.71429e-11
1.00709e-10
3.45267e-10
1.10318e-09
3.29746e-09
9.28551e-09
2.47138e-08
6.2405e-08
1.50269e-07
3.45346e-07
7.6031e-07
1.60776e-06
3.27148e-06
6.42242e-06
1.21789e-05
2.23698e-05
3.98367e-05
6.88588e-05
0.000115725
0.000189427
0.000302021
0.000470068
0.000714704
0.00106265
0.00154583
0.00220385
0.00307941
0.00422158
0.00568429
0.00752623
0.00979388
0.0125409
0.0158086
0.0196523
0.024081
0.0291104
0.0347665
0.040963
0.0477316
0.0549378
0.0624003
0.0694373
0.0685117
0.0224585
0.0100527
0.00999968
0.00999956
0.01
0.0100001
0.00999944
0.0100011
0.00999983
0.00999975
0.00999924
0.01
0.00999895
0.00999982
0.0100002
0.0100001
0.00999909
0.0100012
0.0100009
0.00999997
0.01
0.00999906
0.0100006
0.0100005
0.0099996
0.0100007
0.00999909
0.0100005
0.00999942
0.0100014
0.00999913
0.00999787
0.0100011
0.00999965
0.0100012
0.00999835
0.0100017
0.00999835
0.0100002
0.00999983
0.0100001
0.00999933
0.0100005
0.00999989
0.00999918
0.0100007
0.00999629
)
;

boundaryField
{
    inlet
    {
        type            fixedValue;
        value           uniform 0;
    }
    outlet
    {
        type            zeroGradient;
    }
    yzfaces
    {
        type            empty;
    }
}


// ************************************************************************* //
