/*--------------------------------*- C++ -*----------------------------------*\
| =========                 |                                                 |
| \\      /  F ield         | foam-extend: Open Source CFD                    |
|  \\    /   O peration     | Version:     5.0                                |
|   \\  /    A nd           | Web:         http://www.foam-extend.org         |
|    \\/     M anipulation  |                                                 |
\*---------------------------------------------------------------------------*/
FoamFile
{
    version     2.0;
    format      ascii;
    class       surfaceScalarField;
    location    "10";
    object      phi;
}
// * * * * * * * * * * * * * * * * * * * * * * * * * * * * * * * * * * * * * //

dimensions      [0 3 -1 0 0 0 0];

internalField   nonuniform List<scalar> 
99
(
1.225e-06
1.22508e-06
1.22557e-06
1.22484e-06
1.22542e-06
1.22611e-06
1.22696e-06
1.22713e-06
1.22746e-06
1.22795e-06
1.22767e-06
1.22847e-06
1.22655e-06
1.22797e-06
1.22792e-06
1.22792e-06
1.22756e-06
1.22747e-06
1.22775e-06
1.22778e-06
1.22637e-06
1.22659e-06
1.22677e-06
1.22761e-06
1.22724e-06
1.22675e-06
1.22638e-06
1.22672e-06
1.22608e-06
1.22637e-06
1.22605e-06
1.22615e-06
1.22543e-06
1.22629e-06
1.22566e-06
1.2261e-06
1.22624e-06
1.22567e-06
1.22555e-06
1.22549e-06
1.22519e-06
1.22488e-06
1.22552e-06
1.22531e-06
1.22577e-06
1.22603e-06
1.22598e-06
1.22589e-06
1.22594e-06
1.22539e-06
1.22574e-06
1.22591e-06
1.22697e-06
1.25756e-06
1.21481e-06
1.20806e-06
1.21354e-06
1.20738e-06
1.22847e-06
1.22909e-06
1.21446e-06
1.25919e-06
1.23003e-06
1.25081e-06
1.24529e-06
1.23597e-06
1.25031e-06
1.28839e-06
1.3023e-06
1.26824e-06
1.28094e-06
1.27509e-06
1.27442e-06
1.29617e-06
1.30948e-06
1.29739e-06
1.29676e-06
1.31072e-06
1.26016e-06
1.28224e-06
1.27381e-06
1.29577e-06
1.26726e-06
1.2819e-06
1.28812e-06
1.30982e-06
1.30367e-06
1.34829e-06
1.31885e-06
1.31233e-06
1.33469e-06
1.33405e-06
1.32791e-06
1.30487e-06
1.32726e-06
1.33336e-06
1.34763e-06
1.334e-06
1.348e-06
)
;

boundaryField
{
    inlet
    {
        type            calculated;
        value           uniform -1.225e-06;
    }
    outlet
    {
        type            calculated;
        value           uniform 1.32686e-06;
    }
    yzfaces
    {
        type            empty;
    }
}


// ************************************************************************* //
