/*--------------------------------*- C++ -*----------------------------------*\
| =========                 |                                                 |
| \\      /  F ield         | foam-extend: Open Source CFD                    |
|  \\    /   O peration     | Version:     5.0                                |
|   \\  /    A nd           | Web:         http://www.foam-extend.org         |
|    \\/     M anipulation  |                                                 |
\*---------------------------------------------------------------------------*/
FoamFile
{
    version     2.0;
    format      ascii;
    class       volScalarField;
    location    "10";
    object      S.gas;
}
// * * * * * * * * * * * * * * * * * * * * * * * * * * * * * * * * * * * * * //

dimensions      [0 0 0 0 0 0 0];

internalField   nonuniform List<scalar> 
100
(
0.000374377
0.000604615
0.000822494
0.00103123
0.00122884
0.00142601
0.00161581
0.00181572
0.00201492
0.00220915
0.00240623
0.00260458
0.00280603
0.00299677
0.00319478
0.00338725
0.00358457
0.00378209
0.00396927
0.00416243
0.00436212
0.00456295
0.00476544
0.0049678
0.00517306
0.0053704
0.00556231
0.0057596
0.00595756
0.00615426
0.00635864
0.00656748
0.00678194
0.00699922
0.00722414
0.00745384
0.00769318
0.00794412
0.00819741
0.00845704
0.00872894
0.00902598
0.0093562
0.0097278
0.01016
0.0106904
0.0113668
0.0123019
0.0136996
0.0161306
0.0213802
0.0382648
0.160799
0.797194
0.949598
0.950267
0.949937
0.950164
0.949902
0.949918
0.95004
0.949775
0.950286
0.949921
0.950145
0.950061
0.949929
0.949773
0.949528
0.950389
0.950039
0.950154
0.950144
0.949922
0.949678
0.950009
0.950037
0.949918
0.950288
0.950176
0.950021
0.949771
0.950145
0.950036
0.950047
0.949789
0.950157
0.949769
0.950166
0.950268
0.950034
0.950177
0.950404
0.950137
0.950148
0.949759
0.949783
0.949888
0.950054
0.949995
)
;

boundaryField
{
    inlet
    {
        type            calculated;
        value           uniform 0;
    }
    outlet
    {
        type            calculated;
        value           uniform 0.949995;
    }
    yzfaces
    {
        type            empty;
    }
}


// ************************************************************************* //
