/*--------------------------------*- C++ -*----------------------------------*\
| =========                 |                                                 |
| \\      /  F ield         | foam-extend: Open Source CFD                    |
|  \\    /   O peration     | Version:     5.0                                |
|   \\  /    A nd           | Web:         http://www.foam-extend.org         |
|    \\/     M anipulation  |                                                 |
\*---------------------------------------------------------------------------*/
FoamFile
{
    version     2.0;
    format      ascii;
    class       volVectorField;
    location    "10";
    object      U.gas;
}
// * * * * * * * * * * * * * * * * * * * * * * * * * * * * * * * * * * * * * //

dimensions      [0 1 -1 0 0 0 0];

internalField   nonuniform List<vector> 
100
(
(5.32361e-05 0 0)
(0.000118952 0 0)
(0.000180256 0 0)
(0.000240179 0 0)
(0.000298346 0 0)
(0.000354206 0 0)
(0.000410006 0 0)
(0.000464384 0 0)
(0.00052146 0 0)
(0.000578602 0 0)
(0.000634135 0 0)
(0.00069072 0 0)
(0.000747233 0 0)
(0.0008048 0 0)
(0.000860262 0 0)
(0.000916968 0 0)
(0.000971883 0 0)
(0.00102901 0 0)
(0.00108592 0 0)
(0.00113945 0 0)
(0.00119459 0 0)
(0.00125158 0 0)
(0.00131006 0 0)
(0.00136923 0 0)
(0.00142821 0 0)
(0.00148698 0 0)
(0.00154297 0 0)
(0.0015986 0 0)
(0.00165511 0 0)
(0.00171143 0 0)
(0.00176888 0 0)
(0.00182803 0 0)
(0.00188754 0 0)
(0.00195 0 0)
(0.0020134 0 0)
(0.00207851 0 0)
(0.00214623 0 0)
(0.00221585 0 0)
(0.00228825 0 0)
(0.00236098 0 0)
(0.00243518 0 0)
(0.00251379 0 0)
(0.00260237 0 0)
(0.00269889 0 0)
(0.00280676 0 0)
(0.00293506 0 0)
(0.00309038 0 0)
(0.00329222 0 0)
(0.00357572 0 0)
(0.00401299 0 0)
(0.00485056 0 0)
(0.00712419 0 0)
(0.0118113 0 0)
(0.00533913 0 0)
(0.0053103 0 0)
(0.00520315 0 0)
(0.00520223 0 0)
(0.00519953 0 0)
(0.00523305 0 0)
(0.00527961 0 0)
(0.00524883 0 0)
(0.00531496 0 0)
(0.00534554 0 0)
(0.0053296 0 0)
(0.00536111 0 0)
(0.0053297 0 0)
(0.00534123 0 0)
(0.00545474 0 0)
(0.00556789 0 0)
(0.00551958 0 0)
(0.00547571 0 0)
(0.00548978 0 0)
(0.00547584 0 0)
(0.00552241 0 0)
(0.00559916 0 0)
(0.00559982 0 0)
(0.00557233 0 0)
(0.00560167 0 0)
(0.0055209 0 0)
(0.00546038 0 0)
(0.00549057 0 0)
(0.00552109 0 0)
(0.00550485 0 0)
(0.00547569 0 0)
(0.00552043 0 0)
(0.00558192 0 0)
(0.00561316 0 0)
(0.00569813 0 0)
(0.00572834 0 0)
(0.00565051 0 0)
(0.00568593 0 0)
(0.00573171 0 0)
(0.00571578 0 0)
(0.00565472 0 0)
(0.00565326 0 0)
(0.00571678 0 0)
(0.0057604 0 0)
(0.00576115 0 0)
(0.00576094 0 0)
(0.00574597 0 0)
)
;

boundaryField
{
    inlet
    {
        type            fixedValue;
        value           uniform (0 0 0);
    }
    outlet
    {
        type            zeroGradient;
    }
    yzfaces
    {
        type            empty;
    }
}


// ************************************************************************* //
