/*--------------------------------*- C++ -*----------------------------------*\
| =========                 |                                                 |
| \\      /  F ield         | foam-extend: Open Source CFD                    |
|  \\    /   O peration     | Version:     5.0                                |
|   \\  /    A nd           | Web:         http://www.foam-extend.org         |
|    \\/     M anipulation  |                                                 |
\*---------------------------------------------------------------------------*/
FoamFile
{
    version     2.0;
    format      ascii;
    class       volVectorField;
    location    "10";
    object      U.water;
}
// * * * * * * * * * * * * * * * * * * * * * * * * * * * * * * * * * * * * * //

dimensions      [0 1 -1 0 0 0 0];

internalField   nonuniform List<vector> 
100
(
(0.00500186 0 0)
(0.00500313 0 0)
(0.00500531 0 0)
(0.00500576 0 0)
(0.00500632 0 0)
(0.00500976 0 0)
(0.00501371 0 0)
(0.00501661 0 0)
(0.00501844 0 0)
(0.00502087 0 0)
(0.00502204 0 0)
(0.00502383 0 0)
(0.00502225 0 0)
(0.00502187 0 0)
(0.00502533 0 0)
(0.00502585 0 0)
(0.00502571 0 0)
(0.00502536 0 0)
(0.00502629 0 0)
(0.00502748 0 0)
(0.00502518 0 0)
(0.00502325 0 0)
(0.00502456 0 0)
(0.00502711 0 0)
(0.00502851 0 0)
(0.00502715 0 0)
(0.00502577 0 0)
(0.00502608 0 0)
(0.00502581 0 0)
(0.00502539 0 0)
(0.00502564 0 0)
(0.00502549 0 0)
(0.00502451 0 0)
(0.00502504 0 0)
(0.00502575 0 0)
(0.00502556 0 0)
(0.00502694 0 0)
(0.00502624 0 0)
(0.00502494 0 0)
(0.00502467 0 0)
(0.00502399 0 0)
(0.00502279 0 0)
(0.00502347 0 0)
(0.00502431 0 0)
(0.00502475 0 0)
(0.00502603 0 0)
(0.00502609 0 0)
(0.00502512 0 0)
(0.00502356 0 0)
(0.00501895 0 0)
(0.00500563 0 0)
(0.004919 0 0)
(0.00370188 0 0)
(0.00401443 0 0)
(5.96063e-05 0 0)
(4.90048e-06 0 0)
(4.78281e-06 0 0)
(4.80454e-06 0 0)
(4.81645e-06 0 0)
(4.87351e-06 0 0)
(4.86693e-06 0 0)
(4.91513e-06 0 0)
(5.00296e-06 0 0)
(4.92943e-06 0 0)
(4.98888e-06 0 0)
(4.94334e-06 0 0)
(4.91159e-06 0 0)
(5.00723e-06 0 0)
(5.11172e-06 0 0)
(5.16312e-06 0 0)
(5.05268e-06 0 0)
(5.08282e-06 0 0)
(5.08182e-06 0 0)
(5.09628e-06 0 0)
(5.12687e-06 0 0)
(5.17942e-06 0 0)
(5.18247e-06 0 0)
(5.17005e-06 0 0)
(5.13396e-06 0 0)
(5.06656e-06 0 0)
(5.08784e-06 0 0)
(5.09951e-06 0 0)
(5.11923e-06 0 0)
(5.08941e-06 0 0)
(5.10903e-06 0 0)
(5.11974e-06 0 0)
(5.17627e-06 0 0)
(5.22853e-06 0 0)
(5.32614e-06 0 0)
(5.26252e-06 0 0)
(5.29356e-06 0 0)
(5.346e-06 0 0)
(5.33305e-06 0 0)
(5.2673e-06 0 0)
(5.26844e-06 0 0)
(5.28297e-06 0 0)
(5.32246e-06 0 0)
(5.33363e-06 0 0)
(5.33277e-06 0 0)
(5.32639e-06 0 0)
)
;

boundaryField
{
    inlet
    {
        type            fixedValue;
        value           uniform (0.005 0 0);
    }
    outlet
    {
        type            zeroGradient;
    }
    yzfaces
    {
        type            empty;
    }
}


// ************************************************************************* //
