/*--------------------------------*- C++ -*----------------------------------*\
| =========                 |                                                 |
| \\      /  F ield         | foam-extend: Open Source CFD                    |
|  \\    /   O peration     | Version:     5.0                                |
|   \\  /    A nd           | Web:         http://www.foam-extend.org         |
|    \\/     M anipulation  |                                                 |
\*---------------------------------------------------------------------------*/
FoamFile
{
    version     2.0;
    format      ascii;
    class       surfaceScalarField;
    location    "3";
    object      phi;
}
// * * * * * * * * * * * * * * * * * * * * * * * * * * * * * * * * * * * * * //

dimensions      [0 3 -1 0 0 0 0];

internalField   nonuniform List<scalar> 
99
(
1.22119e-06
1.22665e-06
1.21926e-06
1.2267e-06
1.22567e-06
1.23936e-06
1.23012e-06
1.23765e-06
1.23191e-06
1.22827e-06
1.23442e-06
1.2316e-06
1.23145e-06
1.23635e-06
1.22841e-06
1.24084e-06
1.23234e-06
1.23078e-06
1.23717e-06
1.23289e-06
1.23613e-06
1.22922e-06
1.23281e-06
1.23572e-06
1.23606e-06
1.23069e-06
1.23051e-06
1.22953e-06
1.23386e-06
1.23229e-06
1.2296e-06
1.23075e-06
1.23342e-06
1.23024e-06
1.23369e-06
1.23117e-06
1.23221e-06
1.22966e-06
1.231e-06
1.23001e-06
1.23123e-06
1.23034e-06
1.23256e-06
1.23243e-06
1.22982e-06
1.23433e-06
1.23076e-06
1.23682e-06
1.23273e-06
1.23466e-06
1.23727e-06
1.23581e-06
1.23601e-06
1.23747e-06
1.23397e-06
1.23489e-06
1.2368e-06
1.23653e-06
1.23631e-06
1.23431e-06
1.23574e-06
1.23452e-06
1.23432e-06
1.23528e-06
1.23531e-06
1.23485e-06
1.23535e-06
1.23555e-06
1.23564e-06
1.23613e-06
1.23811e-06
1.2356e-06
1.23595e-06
1.23746e-06
1.23725e-06
1.23611e-06
1.23838e-06
1.23537e-06
1.23773e-06
1.23773e-06
1.23796e-06
1.23843e-06
1.23819e-06
1.23843e-06
1.23866e-06
1.23819e-06
1.23843e-06
1.23819e-06
1.23843e-06
1.23819e-06
1.23889e-06
1.23866e-06
1.23843e-06
1.23866e-06
1.23843e-06
1.23889e-06
1.23819e-06
1.23843e-06
1.23819e-06
)
;

boundaryField
{
    inlet
    {
        type            calculated;
        value           uniform -1.225e-06;
    }
    outlet
    {
        type            calculated;
        value           uniform 1.23959e-06;
    }
    yzfaces
    {
        type            empty;
    }
}


// ************************************************************************* //
