/*--------------------------------*- C++ -*----------------------------------*\
| =========                 |                                                 |
| \\      /  F ield         | foam-extend: Open Source CFD                    |
|  \\    /   O peration     | Version:     5.0                                |
|   \\  /    A nd           | Web:         http://www.foam-extend.org         |
|    \\/     M anipulation  |                                                 |
\*---------------------------------------------------------------------------*/
FoamFile
{
    version     2.0;
    format      ascii;
    class       volVectorField;
    location    "9";
    object      U.water;
}
// * * * * * * * * * * * * * * * * * * * * * * * * * * * * * * * * * * * * * //

dimensions      [0 1 -1 0 0 0 0];

internalField   nonuniform List<vector> 
100
(
(0.00500407 0 0)
(0.00500372 0 0)
(0.00500515 0 0)
(0.00500766 0 0)
(0.00500401 0 0)
(0.0050094 0 0)
(0.00501054 0 0)
(0.00500743 0 0)
(0.00500575 0 0)
(0.00500501 0 0)
(0.00501045 0 0)
(0.00501019 0 0)
(0.00500947 0 0)
(0.00501161 0 0)
(0.00501185 0 0)
(0.00501256 0 0)
(0.00501328 0 0)
(0.005015 0 0)
(0.00501816 0 0)
(0.005017 0 0)
(0.00501877 0 0)
(0.00501672 0 0)
(0.00501564 0 0)
(0.0050194 0 0)
(0.00501408 0 0)
(0.0050122 0 0)
(0.00500937 0 0)
(0.00501473 0 0)
(0.00502315 0 0)
(0.00501377 0 0)
(0.00501658 0 0)
(0.00502739 0 0)
(0.00502103 0 0)
(0.0050155 0 0)
(0.0050222 0 0)
(0.00502037 0 0)
(0.00501686 0 0)
(0.00501206 0 0)
(0.00501782 0 0)
(0.00502168 0 0)
(0.00500845 0 0)
(0.00500369 0 0)
(0.00498652 0 0)
(0.00491734 0 0)
(0.00480649 0 0)
(0.00472904 0 0)
(0.00464958 0 0)
(0.00450737 0 0)
(0.00429631 0 0)
(0.00402879 0 0)
(0.00368737 0 0)
(0.00326667 0 0)
(0.00256216 0 0)
(0.00188849 0 0)
(0.0012751 0 0)
(0.000673922 0 0)
(0.000365051 0 0)
(0.000229556 0 0)
(0.000115644 0 0)
(3.57977e-05 0 0)
(4.58947e-05 0 0)
(4.23979e-05 0 0)
(-1.5297e-05 0 0)
(-1.28849e-05 0 0)
(2.564e-05 0 0)
(1.16189e-05 0 0)
(8.0376e-06 0 0)
(-6.9615e-06 0 0)
(2.3264e-06 0 0)
(3.28165e-05 0 0)
(3.66613e-06 0 0)
(-1.49347e-05 0 0)
(3.22645e-05 0 0)
(4.52039e-05 0 0)
(2.68988e-06 0 0)
(-5.20588e-06 0 0)
(2.48728e-05 0 0)
(2.31282e-05 0 0)
(-1.87862e-05 0 0)
(-4.68026e-05 0 0)
(-2.80606e-05 0 0)
(5.96673e-06 0 0)
(4.17888e-05 0 0)
(-9.13982e-07 0 0)
(-4.0303e-05 0 0)
(-1.04388e-05 0 0)
(9.33804e-06 0 0)
(1.69127e-05 0 0)
(5.89564e-06 0 0)
(-2.58471e-05 0 0)
(-3.683e-05 0 0)
(7.36421e-06 0 0)
(2.50028e-07 0 0)
(4.54489e-07 0 0)
(-2.59014e-06 0 0)
(-2.66844e-05 0 0)
(-1.22869e-05 0 0)
(-5.46871e-05 0 0)
(-3.00183e-05 0 0)
(1.75758e-05 0 0)
)
;

boundaryField
{
    inlet
    {
        type            fixedValue;
        value           uniform (0.005 0 0);
    }
    outlet
    {
        type            zeroGradient;
    }
    yzfaces
    {
        type            empty;
    }
}


// ************************************************************************* //
