/*--------------------------------*- C++ -*----------------------------------*\
| =========                 |                                                 |
| \\      /  F ield         | foam-extend: Open Source CFD                    |
|  \\    /   O peration     | Version:     5.0                                |
|   \\  /    A nd           | Web:         http://www.foam-extend.org         |
|    \\/     M anipulation  |                                                 |
\*---------------------------------------------------------------------------*/
FoamFile
{
    version     2.0;
    format      ascii;
    class       volScalarField;
    location    "15000";
    object      alpha.water;
}
// * * * * * * * * * * * * * * * * * * * * * * * * * * * * * * * * * * * * * //

dimensions      [0 0 0 0 0 0 0];

internalField   nonuniform List<scalar> 
1500
(
0.199999
0.199999
0.199999
0.199999
0.199999
0.199999
0.199999
0.199998
0.199998
0.199998
0.199998
0.199998
0.199998
0.199997
0.199997
0.199997
0.199997
0.199997
0.199997
0.199996
0.199996
0.199996
0.199996
0.199996
0.199996
0.199995
0.199995
0.199995
0.199995
0.199995
0.199995
0.199994
0.199994
0.199994
0.199994
0.199994
0.199994
0.199993
0.199993
0.199993
0.199993
0.199993
0.199993
0.199992
0.199992
0.199992
0.199992
0.199992
0.199992
0.199992
0.199991
0.199991
0.199991
0.199991
0.199991
0.199991
0.19999
0.19999
0.19999
0.19999
0.19999
0.19999
0.199989
0.199989
0.199989
0.199989
0.199989
0.199989
0.199988
0.199988
0.199988
0.199988
0.199988
0.199988
0.199987
0.199987
0.199987
0.199987
0.199987
0.199987
0.199986
0.199986
0.199986
0.199986
0.199986
0.199986
0.199986
0.199985
0.199985
0.199985
0.199985
0.199985
0.199985
0.199984
0.199984
0.199984
0.199984
0.199984
0.199984
0.199983
0.199983
0.199983
0.199983
0.199983
0.199983
0.199982
0.199982
0.199982
0.199982
0.199982
0.199982
0.199981
0.199981
0.199981
0.199981
0.199981
0.199981
0.19998
0.19998
0.19998
0.19998
0.19998
0.19998
0.19998
0.199979
0.199979
0.199979
0.199979
0.199979
0.199979
0.199978
0.199978
0.199978
0.199978
0.199978
0.199978
0.199977
0.199977
0.199977
0.199977
0.199977
0.199977
0.199976
0.199976
0.199976
0.199976
0.199976
0.199976
0.199975
0.199975
0.199975
0.199975
0.199975
0.199975
0.199974
0.199974
0.199974
0.199974
0.199974
0.199974
0.199974
0.199973
0.199973
0.199973
0.199973
0.199973
0.199973
0.199972
0.199972
0.199972
0.199972
0.199972
0.199972
0.199971
0.199971
0.199971
0.199971
0.199971
0.199971
0.19997
0.19997
0.19997
0.19997
0.19997
0.19997
0.199969
0.199969
0.199969
0.199969
0.199969
0.199969
0.199969
0.199968
0.199968
0.199968
0.199968
0.199968
0.199968
0.199967
0.199967
0.199967
0.199967
0.199967
0.199967
0.199966
0.199966
0.199966
0.199966
0.199966
0.199966
0.199965
0.199965
0.199965
0.199965
0.199965
0.199965
0.199964
0.199964
0.199964
0.199964
0.199964
0.199964
0.199963
0.199963
0.199963
0.199963
0.199963
0.199963
0.199963
0.199962
0.199962
0.199962
0.199962
0.199962
0.199962
0.199961
0.199961
0.199961
0.199961
0.199961
0.199961
0.19996
0.19996
0.199913
0.197779
0.1952
0.192672
0.190192
0.187761
0.185376
0.183036
0.18074
0.178488
0.176278
0.174108
0.171979
0.169888
0.167836
0.165821
0.163842
0.161898
0.159989
0.158113
0.156271
0.15446
0.152681
0.150933
0.149214
0.147525
0.145864
0.144232
0.142626
0.141048
0.139496
0.137969
0.136467
0.13499
0.133536
0.132106
0.130699
0.129314
0.127952
0.126611
0.12529
0.123991
0.122711
0.121452
0.120211
0.11899
0.117787
0.116603
0.115436
0.114287
0.113154
0.112039
0.11094
0.109857
0.10879
0.107739
0.106702
0.105681
0.104674
0.103682
0.102703
0.101739
0.100788
0.0998502
0.0989256
0.0980138
0.0971145
0.0962276
0.0953528
0.0944899
0.0936386
0.0927989
0.0919703
0.0911529
0.0903463
0.0895504
0.088765
0.0879899
0.0872249
0.0864698
0.0857246
0.0849889
0.0842626
0.0835457
0.0828378
0.082139
0.0814489
0.0807675
0.0800946
0.0794301
0.0787739
0.0781257
0.0774856
0.0768532
0.0762286
0.0756116
0.075002
0.0743998
0.0738048
0.0732169
0.072636
0.0720619
0.0714947
0.0709341
0.0703801
0.0698326
0.0692914
0.0687565
0.0682278
0.0677051
0.0671884
0.0666776
0.0661726
0.0656733
0.0651797
0.0646916
0.0642089
0.0637316
0.0632596
0.0627928
0.0623312
0.0618746
0.0614231
0.0609764
0.0605346
0.0600976
0.0596653
0.0592376
0.0588145
0.0583959
0.0579817
0.0575719
0.0571665
0.0567653
0.0563683
0.0559754
0.0555867
0.0552019
0.0548212
0.0544443
0.0540713
0.0537021
0.0533367
0.052975
0.0526169
0.0522625
0.0519116
0.0515642
0.0512202
0.0508797
0.0505426
0.0502088
0.0498783
0.049551
0.0492269
0.048906
0.0485882
0.0482734
0.0479617
0.047653
0.0473473
0.0470445
0.0467445
0.0464474
0.0461531
0.0458616
0.0455729
0.0452868
0.0450034
0.0447226
0.0444445
0.0441689
0.0438959
0.0436253
0.0433573
0.0430917
0.0428285
0.0425677
0.0423092
0.0420531
0.0417993
0.0415478
0.0412985
0.0410515
0.0408066
0.0405639
0.0403234
0.0400849
0.0398486
0.0396143
0.0393821
0.0391519
0.0389237
0.0386975
0.0384732
0.0382508
0.0380304
0.0378118
0.0375951
0.0373802
0.0371672
0.0369559
0.0367465
0.0365388
0.0363328
0.0361285
0.035926
0.0357251
0.0355259
0.0353284
0.0351324
0.0349381
0.0347454
0.0345542
0.0343646
0.0341766
0.03399
0.033805
0.0336214
0.0334394
0.0332588
0.0330796
0.0329018
0.0327255
0.0325506
0.032377
0.0322048
0.032034
0.0318645
0.0316963
0.0315294
0.0313638
0.0311996
0.0310365
0.0308748
0.0307143
0.030555
0.0303969
0.03024
0.0300843
0.0299299
0.0297765
0.0296244
0.0294733
0.0293235
0.0291747
0.029027
0.0288805
0.028735
0.0285906
0.0284473
0.028305
0.0281638
0.0280236
0.0278845
0.0277463
0.0276092
0.027473
0.0273379
0.0272037
0.0270705
0.0269382
0.0268069
0.0266765
0.0265471
0.0264186
0.0262909
0.0261642
0.0260384
0.0259135
0.0257895
0.0256663
0.025544
0.0254225
0.0253019
0.0251821
0.0250631
0.024945
0.0248277
0.0247112
0.0245955
0.0244805
0.0243664
0.0242531
0.0241405
0.0240286
0.0239176
0.0238072
0.0236977
0.0235888
0.0234807
0.0233733
0.0232666
0.0231607
0.0230554
0.0229508
0.0228469
0.0227437
0.0226412
0.0225394
0.0224382
0.0223377
0.0222378
0.0221386
0.02204
0.0219421
0.0218448
0.0217481
0.021652
0.0215566
0.0214617
0.0213675
0.0212739
0.0211808
0.0210884
0.0209965
0.0209052
0.0208145
0.0207244
0.0206348
0.0205458
0.0204573
0.0203694
0.0202821
0.0201952
0.0201089
0.0200232
0.0199379
0.0198532
0.019769
0.0196854
0.0196022
0.0195195
0.0194374
0.0193557
0.0192745
0.0191939
0.0191137
0.019034
0.0189547
0.018876
0.0187977
0.0187198
0.0186425
0.0185656
0.0184891
0.0184131
0.0183376
0.0182625
0.0181878
0.0181136
0.0180398
0.0179664
0.0178934
0.0178209
0.0177488
0.0176771
0.0176059
0.017535
0.0174646
0.0173945
0.0173248
0.0172556
0.0171867
0.0171183
0.0170502
0.0169825
0.0169152
0.0168482
0.0167817
0.0167155
0.0166497
0.0165842
0.0165191
0.0164544
0.01639
0.016326
0.0162624
0.0161991
0.0161361
0.0160735
0.0160112
0.0159493
0.0158877
0.0158265
0.0157655
0.015705
0.0156447
0.0155848
0.0155251
0.0154659
0.0154069
0.0153482
0.0152899
0.0152318
0.0151741
0.0151167
0.0150596
0.0150028
0.0149463
0.0148901
0.0148341
0.0147785
0.0147232
0.0146681
0.0146134
0.0145589
0.0145047
0.0144508
0.0143972
0.0143438
0.0142908
0.014238
0.0141854
0.0141332
0.0140812
0.0140295
0.013978
0.0139268
0.0138758
0.0138252
0.0137747
0.0137246
0.0136746
0.013625
0.0135755
0.0135264
0.0134774
0.0134288
0.0133803
0.0133321
0.0132842
0.0132364
0.0131889
0.0131417
0.0130947
0.0130479
0.0130013
0.012955
0.0129089
0.012863
0.0128173
0.0127719
0.0127267
0.0126817
0.0126369
0.0125923
0.012548
0.0125038
0.0124599
0.0124162
0.0123727
0.0123294
0.0122863
0.0122434
0.0122007
0.0121582
0.0121159
0.0120738
0.0120319
0.0119902
0.0119487
0.0119074
0.0118663
0.0118254
0.0117847
0.0117441
0.0117038
0.0116636
0.0116236
0.0115838
0.0115442
0.0115048
0.0114655
0.0114265
0.0113876
0.0113489
0.0113103
0.0112719
0.0112338
0.0111957
0.0111579
0.0111202
0.0110827
0.0110454
0.0110082
0.0109712
0.0109343
0.0108977
0.0108611
0.0108248
0.0107886
0.0107526
0.0107167
0.010681
0.0106454
0.01061
0.0105748
0.0105397
0.0105047
0.0104699
0.0104353
0.0104008
0.0103665
0.0103323
0.0102982
0.0102643
0.0102306
0.010197
0.0101635
0.0101302
0.010097
0.010064
0.0100311
0.00999835
0.00996574
0.00993326
0.00990092
0.00986872
0.00983665
0.00980472
0.00977292
0.00974125
0.00970972
0.00967832
0.00964704
0.0096159
0.00958489
0.009554
0.00952325
0.00949262
0.00946211
0.00943174
0.00940148
0.00937135
0.00934134
0.00931146
0.0092817
0.00925206
0.00922254
0.00919313
0.00916385
0.00913469
0.00910564
0.00907671
0.0090479
0.0090192
0.00899062
0.00896215
0.00893379
0.00890555
0.00887742
0.0088494
0.00882149
0.0087937
0.00876601
0.00873843
0.00871096
0.0086836
0.00865634
0.00862919
0.00860215
0.00857521
0.00854838
0.00852165
0.00849503
0.00846851
0.00844209
0.00841577
0.00838956
0.00836344
0.00833743
0.00831151
0.0082857
0.00825998
0.00823436
0.00820884
0.00818341
0.00815808
0.00813285
0.00810771
0.00808267
0.00805772
0.00803287
0.00800811
0.00798344
0.00795886
0.00793438
0.00790999
0.00788568
0.00786147
0.00783735
0.00781332
0.00778937
0.00776552
0.00774175
0.00771807
0.00769447
0.00767096
0.00764754
0.00762421
0.00760096
0.00757779
0.00755471
0.00753171
0.00750879
0.00748596
0.00746321
0.00744054
0.00741796
0.00739545
0.00737302
0.00735068
0.00732842
0.00730623
0.00728412
0.00726209
0.00724014
0.00721827
0.00719648
0.00717476
0.00715312
0.00713155
0.00711006
0.00708865
0.00706731
0.00704604
0.00702485
0.00700374
0.00698269
0.00696172
0.00694083
0.00692
0.00689925
0.00687856
0.00685795
0.00683741
0.00681694
0.00679655
0.00677622
0.00675596
0.00673576
0.00671564
0.00669559
0.0066756
0.00665568
0.00663583
0.00661605
0.00659633
0.00657668
0.0065571
0.00653758
0.00651812
0.00649873
0.00647941
0.00646015
0.00644095
0.00642182
0.00640275
0.00638375
0.0063648
0.00634592
0.00632711
0.00630835
0.00628965
0.00627102
0.00625245
0.00623394
0.00621549
0.00619709
0.00617876
0.00616049
0.00614228
0.00612413
0.00610603
0.00608799
0.00607002
0.00605209
0.00603423
0.00601643
0.00599868
0.00598098
0.00596335
0.00594577
0.00592825
0.00591078
0.00589337
0.00587601
0.00585871
0.00584146
0.00582426
0.00580712
0.00579004
0.00577301
0.00575603
0.0057391
0.00572223
0.00570541
0.00568864
0.00567193
0.00565526
0.00563865
0.00562209
0.00560558
0.00558912
0.00557271
0.00555636
0.00554005
0.00552379
0.00550759
0.00549143
0.00547532
0.00545926
0.00544325
0.00542729
0.00541137
0.00539551
0.00537969
0.00536392
0.0053482
0.00533253
0.0053169
0.00530132
0.00528579
0.0052703
0.00525486
0.00523946
0.00522412
0.00520881
0.00519355
0.00517834
0.00516318
0.00514805
0.00513298
0.00511794
0.00510296
0.00508801
0.00507311
0.00505825
0.00504344
0.00502867
0.00501394
0.00499926
0.00498462
0.00497002
0.00495547
0.00494095
0.00492648
0.00491205
0.00489767
0.00488332
0.00486902
0.00485475
0.00484053
0.00482635
0.00481221
0.00479811
0.00478405
0.00477003
0.00475605
0.00474211
0.00472821
0.00471435
0.00470053
0.00468675
0.004673
0.0046593
0.00464563
0.00463201
0.00461842
0.00460487
0.00459136
0.00457788
0.00456445
0.00455105
0.00453769
0.00452437
0.00451108
0.00449783
0.00448462
0.00447144
0.0044583
0.0044452
0.00443214
0.00441911
0.00440611
0.00439315
0.00438023
0.00436735
0.00435449
0.00434168
0.0043289
0.00431615
0.00430344
0.00429077
0.00427813
0.00426552
0.00425295
0.00424041
0.00422791
0.00421544
0.004203
0.0041906
0.00417823
0.0041659
0.0041536
0.00414133
0.0041291
0.00411689
0.00410473
0.00409259
0.00408049
0.00406842
0.00405638
0.00404437
0.0040324
0.00402046
0.00400855
0.00399667
0.00398483
0.00397301
0.00396123
0.00394948
0.00393776
0.00392607
0.00391441
0.00390279
0.00389119
0.00387963
0.00386809
0.00385659
0.00384512
0.00383367
0.00382226
0.00381088
0.00379953
0.00378821
0.00377691
0.00376565
0.00375442
0.00374322
0.00373204
0.0037209
0.00370978
0.0036987
0.00368764
0.00367661
0.00366562
0.00365465
0.0036437
0.00363279
0.00362191
0.00361105
0.00360023
0.00358943
0.00357866
0.00356792
0.0035572
0.00354652
0.00353586
0.00352523
0.00351462
0.00350405
0.0034935
0.00348298
0.00347249
0.00346202
0.00345158
0.00344117
0.00343079
0.00342043
0.0034101
0.0033998
0.00338952
0.00337927
0.00336905
0.00335885
0.00334868
0.00333854
0.00332842
0.00331833
0.00330827
0.00329823
0.00328822
0.00327823
0.00326827
0.00325834
0.00324843
0.00323854
0.00322869
0.00321885
0.00320905
0.00319927
0.00318951
0.00317978
0.00317008
0.0031604
0.00315075
0.00314112
0.00313151
0.00312193
0.00311238
0.00310285
0.00309335
0.00308387
0.00307441
0.00306498
0.00305558
0.0030462
0.00303684
0.00302751
0.0030182
0.00300892
0.00299966
0.00299043
0.00298122
0.00297203
0.00296287
0.00295374
0.00294462
0.00293553
0.00292647
0.00291743
0.00290841
0.00289942
0.00289045
0.0028815
0.00287258
0.00286368
0.0028548
0.00284595
0.00283713
0.00282832
0.00281954
0.00281078
0.00280205
0.00279334
0.00278465
0.00277599
0.00276735
0.00275873
0.00275014
0.00274157
0.00273302
0.00272449
0.00271599
0.00270752
0.00269906
0.00269063
0.00268222
0.00267383
0.00266547
0.00265713
0.00264881
0.00264052
0.00263225
0.002624
0.00261577
0.00260757
0.00259939
0.00259123
0.0025831
0.00257498
0.00256689
0.00255883
0.00255078
0.00254276
0.00253476
0.00252679
0.00251883
0.0025109
0.00250299
0.00249511
0.00248724
0.0024794
0.00247158
0.00246379
0.00245601
0.00244826
0.00244053
0.00243283
0.00242515
0.00241748
0.00240985
0.00240223
0.00239464
0.00238706
0.00237952
0.00237199
0.00236449
0.002357
0.00234955
0.00234211
0.0023347
0.0023273
0.00231993
0.00231259
0.00230526
0.00229796
0.00229068
0.00228343
0.00227619
0.00226898
0.00226179
0.00225462
0.00224748
0.00224036
0.00223326
0.00222618
0.00221913
0.0022121
0.00220509
0.0021981
0.00219114
0.00218419
0.00217728
0.00217038
0.00216351
0.00215666
0.00214983
0.00214302
0.00213624
0.00212948
0.00212274
0.00211603
0.00210934
0.00210267
0.00209603
0.0020894
0.0020828
0.00207623
0.00206967
0.00206314
0.00205663
0.00205015
0.00204369
0.00203725
0.00203083
0.00202444
0.00201807
0.00201173
0.0020054
0.00199911
0.00199283
0.00198658
0.00198035
0.00197414
0.00196796
0.0019618
0.00195567
0.00194956
0.00194347
0.0019374
0.00193136
0.00192535
0.00191935
0.00191338
0.00190744
0.00190152
0.00189562
0.00188975
0.0018839
0.00187807
0.00187227
0.0018665
0.00186074
0.00185502
0.00184931
0.00184363
0.00183798
0.00183235
0.00182674
0.00182116
0.0018156
0.00181007
0.00180457
0.00179908
0.00179363
0.00178819
0.00178279
0.0017774
0.00177205
0.00176671
0.00176141
0.00175613
0.00175087
0.00174564
0.00174043
0.00173525
0.0017301
0.00172497
0.00171987
0.00171479
0.00170974
0.00170471
0.00169971
0.00169474
0.00168979
0.00168487
0.00167998
0.00167511
0.00167027
0.00166545
0.00166066
0.0016559
0.00165116
0.00164646
0.00164177
0.00163712
0.00163249
0.00162789
0.00162331
0.00161877
0.00161425
0.00160975
0.00160529
0.00160085
0.00159644
0.00159206
0.0015877
0.00158337
0.00157907
0.0015748
0.00157056
0.00156634
0.00156215
0.00155799
0.00155386
0.00154976
0.00154569
0.00154164
0.00153762
0.00153363
0.00152967
0.00152574
0.00152184
0.00151797
0.00151412
0.00151031
0.00150652
0.00150276
0.00149903
0.00149534
0.00149167
0.00148803
0.00148442
0.00148084
0.00147729
0.00147377
0.00147028
0.00146682
0.00146339
0.00145999
0.00145662
0.00145328
0.00144997
0.00144669
0.00144344
0.00144022
0.00143704
0.00143388
0.00143075
0.00142766
0.0014246
0.00142156
0.00141856
0.00141559
0.00141265
0.00140974
0.00140687
0.00140402
0.00140121
0.00139842
0.00139567
0.00139295
0.00139027
0.00138761
0.00138499
0.00138239
0.00137983
0.00137731
0.00137481
0.00137234
0.00136991
0.00136751
0.00136515
0.00136281
0.00136051
0.00135824
0.001356
0.00135379
0.00135162
0.00134948
0.00134737
0.0013453
0.00134326
0.00134125
0.00133927
0.00133733
0.00133542
0.00133354
0.00133169
0.00132988
0.0013281
0.00132635
0.00132464
0.00132296
0.00132131
0.0013197
0.00131812
0.00131657
0.00131506
0.00131358
0.00131213
0.00131071
0.00130933
0.00130798
0.00130667
0.00130539
0.00130414
0.00130292
0.00130174
0.00130059
0.00129948
0.00129839
0.00129734
0.00129633
0.00129534
0.0012944
0.00129348
0.0012926
0.00129175
0.00129093
0.00129014
0.00128939
0.00128868
0.00128799
0.00128734
0.00128672
0.00128614
0.00128558
0.00128506
0.00128458
0.00128412
0.0012837
0.00128331
0.00128296
0.00128263
0.00128234
0.00128208
0.00128186
0.00128166
0.0012815
0.00128138
0.00128128
0.00128121
0.00128118
)
;

boundaryField
{
    bottom
    {
        type            fixedValue;
        value           uniform 0.1;
    }
    top
    {
        type            zeroGradient;
    }
    walls
    {
        type            zeroGradient;
    }
}


// ************************************************************************* //
