/*--------------------------------*- C++ -*----------------------------------*\
| =========                 |                                                 |
| \\      /  F ield         | foam-extend: Open Source CFD                    |
|  \\    /   O peration     | Version:     5.0                                |
|   \\  /    A nd           | Web:         http://www.foam-extend.org         |
|    \\/     M anipulation  |                                                 |
\*---------------------------------------------------------------------------*/
FoamFile
{
    version     2.0;
    format      ascii;
    class       volScalarField;
    location    "15000";
    object      alpha.gas;
}
// * * * * * * * * * * * * * * * * * * * * * * * * * * * * * * * * * * * * * //

dimensions      [0 0 0 0 0 0 0];

internalField   nonuniform List<scalar> 
1500
(
5.6808e-07
6.46699e-07
7.26658e-07
8.15115e-07
9.37491e-07
1.15482e-06
1.36511e-06
1.55371e-06
1.73292e-06
1.90719e-06
2.07859e-06
2.24817e-06
2.41654e-06
2.58406e-06
2.75093e-06
2.91731e-06
3.0833e-06
3.24897e-06
3.41437e-06
3.57954e-06
3.7445e-06
3.90929e-06
4.07392e-06
4.2384e-06
4.40276e-06
4.56699e-06
4.73112e-06
4.89514e-06
5.05908e-06
5.22292e-06
5.38668e-06
5.55037e-06
5.71399e-06
5.87753e-06
6.04102e-06
6.20444e-06
6.36781e-06
6.53113e-06
6.69439e-06
6.8576e-06
7.02077e-06
7.18389e-06
7.34698e-06
7.51002e-06
7.67302e-06
7.83599e-06
7.99892e-06
8.16181e-06
8.32468e-06
8.48751e-06
8.65032e-06
8.81309e-06
8.97584e-06
9.13856e-06
9.30125e-06
9.46392e-06
9.62657e-06
9.78919e-06
9.95179e-06
1.01144e-05
1.02769e-05
1.04395e-05
1.0602e-05
1.07645e-05
1.0927e-05
1.10894e-05
1.12519e-05
1.14143e-05
1.15767e-05
1.17391e-05
1.19015e-05
1.20638e-05
1.22262e-05
1.23885e-05
1.25508e-05
1.27131e-05
1.28754e-05
1.30377e-05
1.32e-05
1.33622e-05
1.35245e-05
1.36867e-05
1.38489e-05
1.40112e-05
1.41733e-05
1.43355e-05
1.44977e-05
1.46599e-05
1.4822e-05
1.49842e-05
1.51463e-05
1.53085e-05
1.54706e-05
1.56327e-05
1.57948e-05
1.59569e-05
1.6119e-05
1.62811e-05
1.64431e-05
1.66052e-05
1.67672e-05
1.69293e-05
1.70913e-05
1.72534e-05
1.74154e-05
1.75774e-05
1.77394e-05
1.79014e-05
1.80634e-05
1.82254e-05
1.83874e-05
1.85494e-05
1.87113e-05
1.88733e-05
1.90353e-05
1.91972e-05
1.93592e-05
1.95211e-05
1.9683e-05
1.9845e-05
2.00069e-05
2.01688e-05
2.03307e-05
2.04926e-05
2.06546e-05
2.08165e-05
2.09784e-05
2.11402e-05
2.13021e-05
2.1464e-05
2.16259e-05
2.17878e-05
2.19496e-05
2.21115e-05
2.22734e-05
2.24352e-05
2.25971e-05
2.27589e-05
2.29207e-05
2.30826e-05
2.32444e-05
2.34063e-05
2.35681e-05
2.37299e-05
2.38917e-05
2.40535e-05
2.42153e-05
2.43772e-05
2.4539e-05
2.47008e-05
2.48626e-05
2.50244e-05
2.51861e-05
2.53479e-05
2.55097e-05
2.56715e-05
2.58333e-05
2.59951e-05
2.61568e-05
2.63186e-05
2.64804e-05
2.66421e-05
2.68039e-05
2.69656e-05
2.71274e-05
2.72891e-05
2.74509e-05
2.76126e-05
2.77744e-05
2.79361e-05
2.80979e-05
2.82596e-05
2.84213e-05
2.85831e-05
2.87448e-05
2.89065e-05
2.90682e-05
2.92299e-05
2.93917e-05
2.95534e-05
2.97151e-05
2.98768e-05
3.00385e-05
3.02002e-05
3.03619e-05
3.05236e-05
3.06853e-05
3.0847e-05
3.10087e-05
3.11704e-05
3.13321e-05
3.14938e-05
3.16555e-05
3.18171e-05
3.19788e-05
3.21405e-05
3.23022e-05
3.24639e-05
3.26255e-05
3.27872e-05
3.29489e-05
3.31105e-05
3.32722e-05
3.34339e-05
3.35955e-05
3.37572e-05
3.39188e-05
3.40805e-05
3.42422e-05
3.44038e-05
3.45655e-05
3.47271e-05
3.48888e-05
3.50504e-05
3.5212e-05
3.53737e-05
3.55353e-05
3.5697e-05
3.58586e-05
3.60202e-05
3.61819e-05
3.63435e-05
3.65051e-05
3.66668e-05
3.68284e-05
3.699e-05
3.71516e-05
3.73133e-05
3.74749e-05
3.76365e-05
3.77981e-05
3.79597e-05
3.81214e-05
3.8283e-05
3.84446e-05
3.86062e-05
3.87678e-05
3.89294e-05
3.9091e-05
3.92526e-05
3.94143e-05
3.95783e-05
4.00804e-05
8.68639e-05
0.00222055
0.00479979
0.00732838
0.00980781
0.0122394
0.0146245
0.0169641
0.0192596
0.021512
0.0237223
0.0258917
0.0280211
0.0301116
0.032164
0.0341793
0.0361584
0.0381021
0.0400113
0.0418868
0.0437295
0.04554
0.0473191
0.0490675
0.050786
0.0524751
0.0541357
0.0557683
0.0573736
0.0589521
0.0605045
0.0620313
0.0635331
0.0650104
0.0664638
0.0678938
0.0693009
0.0706855
0.0720482
0.0733894
0.0747096
0.0760092
0.0772886
0.0785483
0.0797886
0.0810099
0.0822127
0.0833973
0.0845641
0.0857134
0.0868456
0.087961
0.0890599
0.0901428
0.0912098
0.0922613
0.0932976
0.094319
0.0953258
0.0963182
0.0972965
0.0982611
0.0992121
0.10015
0.101074
0.101986
0.102885
0.103772
0.104647
0.10551
0.106361
0.107201
0.10803
0.108847
0.109654
0.11045
0.111235
0.11201
0.112775
0.11353
0.114275
0.115011
0.115737
0.116454
0.117162
0.117861
0.118551
0.119232
0.119905
0.12057
0.121226
0.121874
0.122514
0.123147
0.123771
0.124388
0.124998
0.1256
0.126195
0.126783
0.127364
0.127938
0.128505
0.129066
0.12962
0.130167
0.130709
0.131243
0.131772
0.132295
0.132812
0.133322
0.133827
0.134327
0.13482
0.135308
0.135791
0.136268
0.13674
0.137207
0.137669
0.138125
0.138577
0.139024
0.139465
0.139902
0.140335
0.140762
0.141186
0.141604
0.142018
0.142428
0.142834
0.143235
0.143632
0.144025
0.144413
0.144798
0.145179
0.145556
0.145929
0.146298
0.146663
0.147025
0.147383
0.147738
0.148088
0.148436
0.14878
0.14912
0.149457
0.149791
0.150122
0.150449
0.150773
0.151094
0.151412
0.151727
0.152038
0.152347
0.152653
0.152956
0.153255
0.153553
0.153847
0.154138
0.154427
0.154713
0.154997
0.155277
0.155556
0.155831
0.156104
0.156375
0.156643
0.156908
0.157172
0.157432
0.157691
0.157947
0.158201
0.158452
0.158701
0.158949
0.159193
0.159436
0.159677
0.159915
0.160151
0.160386
0.160618
0.160848
0.161076
0.161303
0.161527
0.161749
0.16197
0.162188
0.162405
0.16262
0.162833
0.163044
0.163254
0.163461
0.163667
0.163871
0.164074
0.164275
0.164474
0.164672
0.164868
0.165062
0.165255
0.165446
0.165635
0.165823
0.16601
0.166195
0.166379
0.166561
0.166741
0.16692
0.167098
0.167275
0.167449
0.167623
0.167795
0.167966
0.168136
0.168304
0.168471
0.168636
0.1688
0.168963
0.169125
0.169286
0.169445
0.169603
0.16976
0.169916
0.17007
0.170223
0.170376
0.170527
0.170677
0.170825
0.170973
0.17112
0.171265
0.171409
0.171553
0.171695
0.171836
0.171976
0.172116
0.172254
0.172391
0.172527
0.172662
0.172796
0.17293
0.173062
0.173193
0.173323
0.173453
0.173581
0.173709
0.173836
0.173962
0.174086
0.174211
0.174334
0.174456
0.174578
0.174698
0.174818
0.174937
0.175055
0.175172
0.175289
0.175405
0.175519
0.175634
0.175747
0.17586
0.175971
0.176082
0.176193
0.176302
0.176411
0.176519
0.176627
0.176733
0.176839
0.176945
0.177049
0.177153
0.177256
0.177359
0.177461
0.177562
0.177662
0.177762
0.177861
0.17796
0.178058
0.178155
0.178252
0.178348
0.178443
0.178538
0.178632
0.178726
0.178819
0.178912
0.179003
0.179095
0.179185
0.179276
0.179365
0.179454
0.179543
0.179631
0.179718
0.179805
0.179891
0.179977
0.180062
0.180147
0.180231
0.180315
0.180398
0.18048
0.180563
0.180644
0.180725
0.180806
0.180886
0.180966
0.181045
0.181124
0.181202
0.18128
0.181358
0.181434
0.181511
0.181587
0.181662
0.181738
0.181812
0.181886
0.18196
0.182034
0.182107
0.182179
0.182251
0.182323
0.182394
0.182465
0.182535
0.182606
0.182675
0.182744
0.182813
0.182882
0.18295
0.183018
0.183085
0.183152
0.183218
0.183285
0.18335
0.183416
0.183481
0.183546
0.18361
0.183674
0.183738
0.183801
0.183864
0.183926
0.183989
0.184051
0.184112
0.184174
0.184234
0.184295
0.184355
0.184415
0.184475
0.184534
0.184593
0.184652
0.18471
0.184768
0.184826
0.184883
0.18494
0.184997
0.185054
0.18511
0.185166
0.185221
0.185277
0.185332
0.185387
0.185441
0.185495
0.185549
0.185603
0.185656
0.185709
0.185762
0.185815
0.185867
0.185919
0.185971
0.186022
0.186073
0.186124
0.186175
0.186225
0.186275
0.186325
0.186375
0.186424
0.186474
0.186523
0.186571
0.18662
0.186668
0.186716
0.186764
0.186811
0.186858
0.186905
0.186952
0.186999
0.187045
0.187091
0.187137
0.187183
0.187228
0.187273
0.187318
0.187363
0.187408
0.187452
0.187496
0.18754
0.187584
0.187627
0.187671
0.187714
0.187757
0.187799
0.187842
0.187884
0.187926
0.187968
0.18801
0.188051
0.188093
0.188134
0.188175
0.188215
0.188256
0.188296
0.188336
0.188376
0.188416
0.188456
0.188495
0.188534
0.188574
0.188612
0.188651
0.18869
0.188728
0.188766
0.188804
0.188842
0.18888
0.188917
0.188955
0.188992
0.189029
0.189066
0.189102
0.189139
0.189175
0.189211
0.189247
0.189283
0.189319
0.189355
0.18939
0.189425
0.18946
0.189495
0.18953
0.189565
0.189599
0.189634
0.189668
0.189702
0.189736
0.189769
0.189803
0.189836
0.18987
0.189903
0.189936
0.189969
0.190002
0.190034
0.190067
0.190099
0.190131
0.190163
0.190195
0.190227
0.190259
0.19029
0.190322
0.190353
0.190384
0.190415
0.190446
0.190477
0.190507
0.190538
0.190568
0.190599
0.190629
0.190659
0.190689
0.190718
0.190748
0.190777
0.190807
0.190836
0.190865
0.190894
0.190923
0.190952
0.190981
0.191009
0.191038
0.191066
0.191094
0.191123
0.191151
0.191179
0.191206
0.191234
0.191262
0.191289
0.191316
0.191344
0.191371
0.191398
0.191425
0.191452
0.191478
0.191505
0.191531
0.191558
0.191584
0.19161
0.191637
0.191663
0.191688
0.191714
0.19174
0.191766
0.191791
0.191817
0.191842
0.191867
0.191892
0.191917
0.191942
0.191967
0.191992
0.192017
0.192041
0.192066
0.19209
0.192114
0.192139
0.192163
0.192187
0.192211
0.192234
0.192258
0.192282
0.192306
0.192329
0.192352
0.192376
0.192399
0.192422
0.192445
0.192468
0.192491
0.192514
0.192537
0.192559
0.192582
0.192605
0.192627
0.192649
0.192672
0.192694
0.192716
0.192738
0.19276
0.192782
0.192804
0.192825
0.192847
0.192868
0.19289
0.192911
0.192933
0.192954
0.192975
0.192996
0.193017
0.193038
0.193059
0.19308
0.193101
0.193121
0.193142
0.193163
0.193183
0.193203
0.193224
0.193244
0.193264
0.193284
0.193304
0.193324
0.193344
0.193364
0.193384
0.193404
0.193423
0.193443
0.193462
0.193482
0.193501
0.193521
0.19354
0.193559
0.193578
0.193597
0.193616
0.193635
0.193654
0.193673
0.193692
0.19371
0.193729
0.193748
0.193766
0.193785
0.193803
0.193821
0.19384
0.193858
0.193876
0.193894
0.193912
0.19393
0.193948
0.193966
0.193984
0.194001
0.194019
0.194037
0.194054
0.194072
0.194089
0.194107
0.194124
0.194141
0.194159
0.194176
0.194193
0.19421
0.194227
0.194244
0.194261
0.194278
0.194295
0.194311
0.194328
0.194345
0.194361
0.194378
0.194394
0.194411
0.194427
0.194444
0.19446
0.194476
0.194492
0.194509
0.194525
0.194541
0.194557
0.194573
0.194589
0.194604
0.19462
0.194636
0.194652
0.194667
0.194683
0.194699
0.194714
0.19473
0.194745
0.194761
0.194776
0.194791
0.194806
0.194822
0.194837
0.194852
0.194867
0.194882
0.194897
0.194912
0.194927
0.194942
0.194957
0.194971
0.194986
0.195001
0.195015
0.19503
0.195045
0.195059
0.195074
0.195088
0.195102
0.195117
0.195131
0.195145
0.195159
0.195174
0.195188
0.195202
0.195216
0.19523
0.195244
0.195258
0.195272
0.195286
0.195299
0.195313
0.195327
0.195341
0.195354
0.195368
0.195382
0.195395
0.195409
0.195422
0.195436
0.195449
0.195462
0.195476
0.195489
0.195502
0.195515
0.195529
0.195542
0.195555
0.195568
0.195581
0.195594
0.195607
0.19562
0.195633
0.195646
0.195658
0.195671
0.195684
0.195697
0.195709
0.195722
0.195734
0.195747
0.19576
0.195772
0.195785
0.195797
0.195809
0.195822
0.195834
0.195846
0.195859
0.195871
0.195883
0.195895
0.195907
0.19592
0.195932
0.195944
0.195956
0.195968
0.19598
0.195991
0.196003
0.196015
0.196027
0.196039
0.196051
0.196062
0.196074
0.196086
0.196097
0.196109
0.19612
0.196132
0.196143
0.196155
0.196166
0.196178
0.196189
0.1962
0.196212
0.196223
0.196234
0.196246
0.196257
0.196268
0.196279
0.19629
0.196301
0.196312
0.196323
0.196334
0.196345
0.196356
0.196367
0.196378
0.196389
0.1964
0.196411
0.196421
0.196432
0.196443
0.196453
0.196464
0.196475
0.196485
0.196496
0.196506
0.196517
0.196528
0.196538
0.196548
0.196559
0.196569
0.19658
0.19659
0.1966
0.19661
0.196621
0.196631
0.196641
0.196651
0.196661
0.196672
0.196682
0.196692
0.196702
0.196712
0.196722
0.196732
0.196742
0.196752
0.196761
0.196771
0.196781
0.196791
0.196801
0.19681
0.19682
0.19683
0.19684
0.196849
0.196859
0.196868
0.196878
0.196888
0.196897
0.196907
0.196916
0.196926
0.196935
0.196944
0.196954
0.196963
0.196972
0.196982
0.196991
0.197
0.19701
0.197019
0.197028
0.197037
0.197046
0.197055
0.197064
0.197074
0.197083
0.197092
0.197101
0.19711
0.197118
0.197127
0.197136
0.197145
0.197154
0.197163
0.197172
0.19718
0.197189
0.197198
0.197207
0.197215
0.197224
0.197233
0.197241
0.19725
0.197258
0.197267
0.197276
0.197284
0.197292
0.197301
0.197309
0.197318
0.197326
0.197335
0.197343
0.197351
0.197359
0.197368
0.197376
0.197384
0.197392
0.197401
0.197409
0.197417
0.197425
0.197433
0.197441
0.197449
0.197457
0.197465
0.197473
0.197481
0.197489
0.197497
0.197505
0.197513
0.197521
0.197528
0.197536
0.197544
0.197552
0.197559
0.197567
0.197575
0.197583
0.19759
0.197598
0.197605
0.197613
0.19762
0.197628
0.197636
0.197643
0.19765
0.197658
0.197665
0.197673
0.19768
0.197687
0.197695
0.197702
0.197709
0.197717
0.197724
0.197731
0.197738
0.197745
0.197753
0.19776
0.197767
0.197774
0.197781
0.197788
0.197795
0.197802
0.197809
0.197816
0.197823
0.19783
0.197836
0.197843
0.19785
0.197857
0.197864
0.197871
0.197877
0.197884
0.197891
0.197897
0.197904
0.197911
0.197917
0.197924
0.19793
0.197937
0.197943
0.19795
0.197956
0.197963
0.197969
0.197976
0.197982
0.197988
0.197995
0.198001
0.198007
0.198013
0.19802
0.198026
0.198032
0.198038
0.198044
0.19805
0.198057
0.198063
0.198069
0.198075
0.198081
0.198087
0.198093
0.198098
0.198104
0.19811
0.198116
0.198122
0.198128
0.198134
0.198139
0.198145
0.198151
0.198156
0.198162
0.198168
0.198173
0.198179
0.198184
0.19819
0.198195
0.198201
0.198206
0.198212
0.198217
0.198223
0.198228
0.198233
0.198239
0.198244
0.198249
0.198254
0.19826
0.198265
0.19827
0.198275
0.19828
0.198285
0.19829
0.198295
0.1983
0.198305
0.19831
0.198315
0.19832
0.198325
0.19833
0.198335
0.198339
0.198344
0.198349
0.198354
0.198358
0.198363
0.198368
0.198372
0.198377
0.198381
0.198386
0.19839
0.198395
0.198399
0.198404
0.198408
0.198412
0.198417
0.198421
0.198425
0.198429
0.198434
0.198438
0.198442
0.198446
0.19845
0.198454
0.198458
0.198462
0.198466
0.19847
0.198474
0.198478
0.198482
0.198486
0.19849
0.198493
0.198497
0.198501
0.198505
0.198508
0.198512
0.198516
0.198519
0.198523
0.198526
0.19853
0.198533
0.198537
0.19854
0.198543
0.198547
0.19855
0.198553
0.198557
0.19856
0.198563
0.198566
0.198569
0.198572
0.198575
0.198578
0.198581
0.198584
0.198587
0.19859
0.198593
0.198596
0.198599
0.198602
0.198604
0.198607
0.19861
0.198612
0.198615
0.198618
0.19862
0.198623
0.198625
0.198628
0.19863
0.198632
0.198635
0.198637
0.198639
0.198642
0.198644
0.198646
0.198648
0.198651
0.198653
0.198655
0.198657
0.198659
0.198661
0.198663
0.198665
0.198666
0.198668
0.19867
0.198672
0.198674
0.198675
0.198677
0.198679
0.19868
0.198682
0.198683
0.198685
0.198686
0.198688
0.198689
0.198691
0.198692
0.198693
0.198695
0.198696
0.198697
0.198698
0.198699
0.198701
0.198702
0.198703
0.198704
0.198705
0.198706
0.198707
0.198707
0.198708
0.198709
0.19871
0.198711
0.198711
0.198712
0.198713
0.198713
0.198714
0.198714
0.198715
0.198715
0.198716
0.198716
0.198717
0.198717
0.198717
0.198718
0.198718
0.198718
0.198718
0.198718
0.198719
0.198719
0.198719
0.198719
)
;

boundaryField
{
    bottom
    {
        type            fixedValue;
        value           uniform 0.1;
    }
    top
    {
        type            zeroGradient;
    }
    walls
    {
        type            zeroGradient;
    }
}


// ************************************************************************* //
