/*--------------------------------*- C++ -*----------------------------------*\
| =========                 |                                                 |
| \\      /  F ield         | foam-extend: Open Source CFD                    |
|  \\    /   O peration     | Version:     5.0                                |
|   \\  /    A nd           | Web:         http://www.foam-extend.org         |
|    \\/     M anipulation  |                                                 |
\*---------------------------------------------------------------------------*/
FoamFile
{
    version     2.0;
    format      ascii;
    class       surfaceScalarField;
    location    "15000";
    object      phi;
}
// * * * * * * * * * * * * * * * * * * * * * * * * * * * * * * * * * * * * * //

dimensions      [0 3 -1 0 0 0 0];

internalField   nonuniform List<scalar> 
1499
(
3.16502e-14
-7.33834e-14
-1.07362e-14
4.94992e-14
-4.99367e-14
9.69182e-14
-5.47237e-14
2.14287e-14
-3.30981e-14
7.14011e-15
1.8415e-14
1.54308e-14
-4.14743e-14
3.26488e-14
2.03796e-14
1.33084e-14
-3.14626e-14
-1.07471e-14
2.64488e-14
-1.66393e-14
4.68422e-16
-5.20908e-14
3.97813e-14
-2.41038e-14
4.89365e-14
-2.90522e-14
-9.48141e-15
7.13432e-15
-7.35171e-16
2.6742e-14
-2.60212e-14
-2.37577e-14
2.99174e-14
-5.87189e-14
7.99135e-14
-4.31408e-14
3.69118e-14
-6.28034e-14
9.34316e-14
-3.37561e-14
5.04316e-15
-4.46236e-14
-1.64607e-14
2.00361e-14
4.61439e-14
-5.33681e-14
1.29931e-14
-2.48305e-14
-1.58298e-14
7.97529e-14
-2.25938e-14
-1.49052e-14
1.43768e-15
8.08131e-15
-1.3649e-15
4.49645e-14
-9.01418e-14
2.54581e-14
8.40828e-15
1.31289e-14
-1.36669e-14
1.56837e-14
4.05203e-15
7.80136e-15
-4.15923e-14
4.03189e-14
-3.65816e-15
2.4314e-14
-4.28238e-15
-1.70639e-14
-5.06458e-15
-1.80378e-14
4.67776e-14
-2.02353e-14
-2.5521e-15
-1.6072e-14
1.05622e-14
5.90116e-14
-3.38432e-14
-5.3993e-14
-5.18606e-14
7.47242e-14
2.18499e-14
2.24259e-14
7.68479e-15
-4.48875e-14
3.44071e-14
-1.22751e-14
1.33033e-14
1.3594e-14
-3.29544e-14
-2.30646e-14
2.4477e-14
-3.81152e-14
8.08823e-14
-6.04085e-14
2.81307e-15
2.73806e-14
-1.96752e-14
-3.52953e-14
3.65166e-14
2.01892e-14
-2.72855e-14
-2.30797e-15
1.25888e-14
-1.90721e-14
5.31841e-15
3.57862e-14
-1.2008e-14
-3.32529e-15
-3.52884e-14
-4.24219e-15
4.01849e-15
5.00061e-14
-1.39453e-14
-2.10543e-14
9.45728e-15
2.39789e-14
-1.50794e-14
1.51898e-14
-3.25975e-14
2.22099e-14
5.47913e-15
-4.25611e-14
1.25156e-14
2.67029e-14
-6.80588e-14
3.3837e-14
4.78414e-14
-3.19866e-14
-5.50094e-14
5.35161e-14
-4.2272e-14
4.39383e-14
-2.03591e-14
9.45906e-15
1.49613e-15
1.53383e-14
-4.85683e-14
6.28151e-15
2.02712e-14
-4.39009e-14
2.65149e-14
-6.70617e-15
2.30957e-14
-1.25287e-15
2.84327e-14
-1.14038e-13
6.64723e-14
5.72216e-14
1.86544e-14
-6.06882e-14
4.74857e-15
-2.37976e-14
6.84487e-14
-7.7147e-15
-3.66367e-14
9.44629e-15
-3.53985e-14
-1.65707e-14
1.31599e-14
-3.12731e-14
4.92292e-14
1.62366e-14
-5.95502e-14
5.40695e-15
6.67903e-14
-2.55916e-14
-3.85631e-14
3.82366e-14
-2.21663e-14
1.14e-14
2.51757e-14
-1.9616e-14
2.95763e-14
-8.15286e-14
-3.39353e-16
1.76164e-14
-2.68348e-17
1.78313e-14
-2.66191e-14
2.61808e-15
8.30063e-14
-5.61902e-14
-1.05904e-14
6.89229e-15
-5.65266e-15
-8.44996e-15
-5.26617e-14
2.85744e-14
4.15657e-14
-3.5105e-14
1.54525e-14
-1.94309e-14
-4.00839e-16
3.29735e-14
-4.78069e-14
3.29053e-14
-2.74268e-14
1.82244e-15
1.94639e-14
6.32492e-15
5.0046e-14
-7.27141e-14
3.966e-14
-1.02488e-14
7.67393e-15
9.76053e-15
-8.33071e-15
4.04046e-14
-5.06108e-14
-2.22823e-14
1.18375e-14
-1.76907e-14
-3.7131e-15
1.35444e-14
6.2702e-14
-5.03294e-14
1.56676e-14
-1.42958e-14
-4.7285e-14
7.94626e-14
-4.34143e-14
1.6493e-14
-1.26359e-14
-1.04947e-14
-4.39817e-14
2.08733e-14
-8.10569e-15
4.82815e-15
5.3328e-14
9.07052e-15
-4.16552e-14
2.35984e-14
-2.09045e-14
5.42013e-14
-3.81352e-14
-1.9295e-14
2.41205e-14
-4.27627e-14
-1.63688e-14
1.5306e-14
2.03078e-14
1.19007e-15
-2.42741e-14
1.0222e-14
9.77392e-15
-1.66051e-14
2.70485e-14
2.32102e-15
-1.73857e-14
5.84831e-14
-5.9356e-14
2.46731e-14
-9.45186e-14
2.93692e-14
5.33469e-15
3.45613e-14
3.9564e-14
-1.78109e-14
-8.48915e-14
7.02411e-14
-5.46125e-14
-1.38659e-13
1.24423e-13
3.04457e-14
6.00435e-14
-8.99539e-14
1.91364e-14
4.73269e-14
2.28705e-14
-3.74438e-14
-2.80236e-14
-9.05098e-14
1.14124e-13
4.27916e-14
1.23446e-14
-1.13868e-13
1.27304e-13
-1.63802e-13
-5.70995e-14
5.59738e-14
-1.43816e-14
1.12978e-14
1.68532e-13
-1.15078e-13
-7.26291e-14
2.56511e-13
-2.29695e-14
-3.02634e-13
8.62627e-14
5.58164e-14
1.17099e-13
-8.67989e-14
2.74877e-13
-2.1042e-13
-6.15435e-14
-2.31969e-14
1.50438e-13
-2.10788e-13
-2.56597e-14
2.06821e-13
-2.30506e-13
2.76876e-13
2.28801e-15
-5.11723e-14
-9.68533e-14
-2.48775e-13
4.42968e-13
-2.37232e-13
2.13198e-13
-3.8629e-13
4.27208e-14
1.8763e-13
6.42125e-14
5.51231e-14
-4.31348e-13
1.965e-13
2.47105e-13
-1.07442e-13
-4.24694e-14
1.60567e-13
-3.79921e-13
1.89926e-13
-5.58769e-14
-4.29576e-14
1.05146e-13
-1.62218e-13
3.87634e-13
-3.33847e-13
2.55765e-13
-1.04636e-13
-2.09649e-13
2.26242e-13
-3.88559e-13
2.48332e-13
-2.70485e-14
-1.09245e-13
1.95667e-13
8.45864e-15
-9.9656e-14
1.47668e-13
-9.00107e-14
5.64596e-14
5.35292e-14
-1.11101e-13
-5.75526e-14
-1.25381e-13
1.08538e-13
3.31442e-14
-1.78559e-13
2.13186e-13
3.60597e-14
-1.52107e-13
2.30826e-14
1.35547e-13
1.65891e-13
2.76472e-15
-9.94952e-14
-8.3954e-14
6.57122e-14
-8.00956e-14
-3.74404e-13
4.19718e-13
-2.17656e-13
2.65028e-13
-1.01824e-13
-1.33056e-13
1.08209e-13
9.79186e-14
6.43151e-14
-5.75675e-14
4.59667e-14
-1.61229e-13
3.44302e-14
-1.18879e-13
1.69875e-13
-3.03856e-13
5.20028e-13
-4.02668e-13
-2.96264e-14
2.626e-13
-1.0086e-13
-3.11018e-14
-1.41393e-14
-2.04871e-13
3.13103e-13
9.96579e-14
-3.16746e-13
2.38752e-13
-8.54386e-14
2.2011e-13
-1.78249e-13
4.84413e-14
2.87546e-13
-3.00216e-13
-5.91346e-14
6.71177e-14
1.24255e-13
-2.03361e-13
1.27512e-13
-2.20379e-15
8.12234e-14
-7.80711e-14
5.08788e-14
-1.56188e-13
1.21768e-13
-3.88382e-14
1.31748e-13
-1.52198e-13
7.84004e-14
1.12139e-13
-1.69615e-13
2.42619e-13
-2.43763e-13
2.08637e-13
-8.01063e-14
1.19037e-13
-2.912e-13
2.03302e-13
7.29947e-14
-1.22238e-13
1.0789e-13
-1.05855e-13
4.80236e-14
2.65122e-14
-5.29008e-14
4.98714e-14
-7.77412e-14
3.46092e-14
-1.22451e-14
4.50332e-14
3.89422e-14
-5.69362e-14
5.06199e-14
2.64723e-14
7.6845e-14
-4.29803e-14
-2.16604e-14
-6.54244e-14
1.36386e-13
-1.0149e-13
7.42083e-14
-3.02789e-14
1.9913e-13
-9.97874e-14
8.02276e-15
-4.13107e-14
6.18769e-14
1.21309e-13
-5.08497e-14
-5.90139e-15
6.80926e-16
1.2113e-14
-6.82149e-14
-6.28124e-14
3.90869e-14
6.43173e-14
-3.08078e-14
1.29849e-13
-2.53503e-14
1.27659e-14
7.19222e-14
-1.22769e-13
8.52627e-14
7.1913e-14
-1.1687e-13
5.75229e-14
-2.48617e-14
7.29903e-14
7.05449e-15
1.49942e-14
-4.75419e-14
6.94374e-14
4.59718e-14
5.27047e-14
2.37619e-14
-4.47253e-14
-8.10255e-14
1.15489e-13
-7.00795e-14
1.27412e-13
1.227e-14
-7.62516e-14
1.45452e-14
8.76692e-14
-4.72922e-14
5.29082e-14
-7.52376e-15
-3.12782e-14
3.73836e-14
1.02616e-13
-6.5153e-14
4.43724e-15
4.29123e-14
-5.21645e-14
6.11309e-14
8.61385e-14
-7.93106e-14
9.52333e-14
-9.87413e-14
1.51177e-13
-5.20476e-14
-4.48288e-14
8.79858e-14
3.13473e-14
5.84635e-14
1.37919e-13
-1.44805e-13
4.37721e-14
1.09641e-13
-1.34032e-14
-6.86379e-14
9.52417e-14
1.1189e-14
1.09041e-13
-8.66211e-14
2.32679e-14
8.65671e-14
-5.24464e-14
9.82036e-15
3.99963e-14
-1.97025e-14
9.60082e-14
-7.99076e-14
-1.37061e-14
1.57179e-13
-8.19087e-14
5.26782e-15
1.58407e-13
-6.17866e-14
-3.57132e-14
1.07403e-13
1.16043e-14
-1.31101e-14
2.83323e-14
-6.41415e-15
-9.87352e-15
-8.92819e-14
1.4282e-13
3.50577e-14
-7.43069e-15
8.2635e-14
4.57097e-15
-2.92642e-14
-3.14994e-14
7.29436e-14
-3.88239e-14
4.84954e-14
4.37651e-14
3.87201e-14
-2.70989e-14
2.41751e-14
7.91759e-14
-1.03162e-13
-3.10298e-14
2.8488e-14
7.95691e-14
-1.33198e-14
2.48232e-14
2.59711e-14
3.35143e-15
-4.50073e-14
7.28842e-14
1.95019e-14
-5.92498e-14
2.9853e-14
-2.61046e-14
5.87721e-15
3.42925e-14
-2.03622e-14
3.65726e-14
9.46088e-14
-5.26402e-14
3.98552e-14
-8.35014e-15
-8.44474e-15
2.13265e-14
3.6926e-14
5.60022e-14
-2.07048e-14
8.86379e-14
-2.21361e-14
-6.91828e-14
1.01817e-13
8.30551e-16
-2.04599e-14
8.83824e-14
6.12097e-14
-5.28063e-14
4.84461e-14
-3.37024e-15
2.09586e-14
-1.4308e-14
6.28075e-14
2.4955e-14
3.41019e-14
2.88553e-14
-2.20983e-14
7.53482e-14
-2.86275e-14
6.78205e-15
5.32738e-14
1.26599e-14
-6.70491e-15
2.27834e-14
-1.62191e-15
3.14092e-14
2.66413e-15
2.11367e-14
-1.19484e-14
2.12156e-14
7.3107e-14
-3.13207e-14
2.61626e-14
3.59575e-14
5.95004e-14
3.0357e-14
2.30407e-14
1.33819e-14
3.66825e-14
1.25677e-14
-1.88689e-14
2.81176e-14
-3.76954e-15
2.74006e-14
-7.47885e-15
2.05208e-14
6.23478e-15
2.46402e-14
-2.24611e-14
5.46157e-14
-2.26074e-14
5.11908e-15
5.07751e-14
6.06243e-14
-2.47136e-14
3.1478e-14
4.55866e-15
4.76598e-14
-1.37649e-14
8.22445e-15
4.01796e-14
-7.47049e-15
4.59111e-14
8.04496e-15
9.67137e-15
-6.55828e-15
4.02616e-14
1.25705e-14
-7.05141e-15
-8.05911e-15
4.24188e-14
-6.03225e-15
-1.49632e-14
1.99954e-14
1.46829e-14
-3.26998e-14
2.43351e-14
4.69258e-14
9.49124e-15
-1.18864e-15
1.12585e-14
-3.0116e-15
1.56674e-14
3.29402e-14
-2.20713e-14
1.76457e-14
3.93731e-16
3.34515e-14
-3.77011e-15
-1.34683e-14
4.91522e-14
1.77877e-14
3.19279e-14
3.19121e-14
-5.90053e-15
1.75042e-14
2.91669e-14
-2.70424e-15
1.68668e-14
-1.32986e-14
2.13923e-14
2.78076e-14
1.38589e-14
6.00855e-15
2.78306e-14
8.6874e-15
2.67034e-14
3.02909e-14
-1.16232e-14
4.23131e-14
1.00308e-14
1.84688e-14
3.49131e-14
-1.21907e-14
2.8967e-14
1.59733e-14
5.70488e-14
5.55685e-15
1.5212e-14
-2.65685e-14
2.39373e-14
5.60588e-14
-1.30188e-14
3.53001e-14
-6.72496e-15
2.50517e-14
2.47584e-14
4.66024e-14
-3.18338e-16
6.90296e-14
6.07782e-15
-1.90585e-14
6.72832e-14
-2.06101e-14
7.44289e-14
2.87244e-14
-1.29097e-15
-1.43287e-14
8.25047e-14
-1.8391e-14
4.2533e-14
9.2129e-15
6.09154e-14
4.82144e-15
2.23088e-14
7.82144e-15
5.95132e-14
2.58677e-14
9.37662e-16
3.64033e-14
-1.13327e-14
5.35708e-14
5.941e-15
5.67845e-14
4.4446e-14
5.20274e-14
2.68382e-14
1.90321e-14
1.53243e-14
7.17112e-14
1.73716e-14
5.28584e-14
3.18548e-14
2.00087e-14
6.22841e-14
3.93397e-14
1.29934e-14
3.83723e-14
2.94377e-14
6.13558e-14
2.64353e-14
1.8665e-14
7.75362e-14
4.08336e-14
4.57208e-14
6.45612e-15
5.72272e-14
1.59644e-14
3.4081e-14
1.77986e-14
2.33652e-14
3.7857e-14
3.19406e-14
7.34397e-15
4.50571e-14
2.74958e-14
4.46373e-14
3.13107e-14
6.9707e-15
6.67625e-14
1.15474e-14
4.03855e-14
4.67711e-14
1.90778e-14
5.4525e-14
2.82087e-14
5.48689e-15
3.87107e-14
4.62929e-14
2.0093e-14
2.54562e-14
4.85634e-14
3.23137e-14
3.23823e-14
3.73229e-14
1.86403e-14
4.41222e-14
1.68552e-14
3.392e-14
2.96534e-14
4.97485e-14
1.68353e-14
2.70961e-14
4.28787e-14
1.7191e-14
4.74249e-14
2.35842e-14
2.95844e-14
8.08771e-15
4.79983e-14
4.60936e-15
6.13242e-14
2.27252e-14
3.79584e-14
2.10755e-14
2.08525e-14
4.32959e-14
3.78038e-14
1.71406e-14
3.77455e-14
2.20255e-14
1.45572e-14
3.99257e-14
-4.82173e-15
4.57618e-14
2.99196e-14
4.48599e-14
8.39441e-15
4.47826e-14
2.3856e-14
4.59449e-15
6.14769e-14
1.0276e-14
3.5313e-14
3.39494e-14
1.93802e-14
4.59029e-14
3.44367e-14
2.89696e-14
1.86219e-14
3.06506e-14
1.87157e-14
6.31852e-14
2.7088e-14
1.26755e-14
3.67587e-14
3.6902e-14
2.67116e-14
2.2073e-14
4.31484e-14
1.78322e-14
3.66962e-14
1.78835e-14
5.08714e-14
1.37199e-14
3.81372e-14
1.59687e-14
4.68497e-14
4.5853e-14
1.54752e-14
1.75007e-14
5.13174e-14
3.03578e-14
2.88589e-14
2.70283e-14
4.50151e-14
3.43901e-14
2.74854e-14
5.3627e-14
4.45589e-14
3.65087e-14
3.11072e-14
1.79407e-14
4.10819e-14
2.37206e-14
4.53698e-14
5.3238e-14
2.17508e-14
3.39102e-14
3.65308e-14
4.58781e-14
3.46835e-14
3.87245e-14
4.23903e-14
4.23158e-14
2.26272e-14
4.57976e-14
2.44953e-14
1.82585e-14
3.66035e-14
4.07526e-14
3.74143e-14
3.43176e-14
4.193e-14
2.9041e-14
2.49096e-14
2.21167e-14
3.95934e-14
4.73676e-14
3.84682e-14
1.72772e-14
2.4475e-14
3.55774e-14
2.99721e-14
3.39212e-14
2.69276e-14
8.91451e-15
5.36895e-14
2.60193e-14
2.56857e-14
3.10995e-14
1.07553e-14
5.06735e-14
1.04645e-14
3.42484e-14
2.69334e-14
9.68901e-15
3.55309e-14
1.56552e-14
3.57812e-14
2.29827e-14
3.94736e-14
2.01655e-14
2.94937e-14
3.07357e-14
5.45656e-15
4.92952e-14
2.0524e-14
4.1965e-14
2.78531e-14
-5.06089e-15
3.10751e-14
2.5104e-14
1.48944e-14
4.34014e-14
6.11772e-15
2.61143e-14
3.0226e-14
-1.30112e-14
2.82545e-14
3.90772e-15
3.52329e-14
7.68425e-15
1.60545e-14
1.55978e-14
2.85477e-14
1.20268e-14
7.8985e-15
-7.16932e-15
2.04001e-14
1.10858e-14
3.97089e-15
2.19443e-14
3.89228e-15
1.82843e-14
1.75449e-14
1.17406e-14
1.5438e-14
2.2217e-14
1.40998e-14
2.72258e-14
3.13856e-14
9.35543e-15
1.84371e-14
6.71517e-15
1.29411e-14
-5.21409e-15
2.29684e-14
-1.0061e-14
-1.31743e-14
2.46825e-14
-1.25603e-14
-7.17881e-15
1.87243e-14
-1.13955e-15
1.21441e-14
1.4294e-14
-2.49871e-15
7.91181e-15
1.03601e-14
1.92926e-14
2.84427e-14
-4.7817e-16
2.50939e-14
-9.33395e-15
1.62388e-14
1.41595e-14
9.58431e-15
2.6759e-14
2.78945e-14
2.00233e-14
3.29586e-14
3.47424e-14
4.28972e-14
4.37995e-14
3.55644e-14
1.73157e-14
4.60515e-14
4.38288e-14
3.12719e-14
2.20451e-14
5.09155e-14
2.20071e-14
1.72239e-14
2.15391e-14
5.41678e-14
3.71796e-14
3.88047e-14
4.89425e-14
1.37628e-14
4.75319e-14
2.37602e-14
4.16476e-14
2.92318e-14
3.46574e-14
2.87063e-14
4.55753e-14
5.2967e-14
1.41564e-14
5.25947e-14
3.17118e-14
3.33867e-14
5.4709e-14
4.43639e-14
4.49779e-14
5.41604e-14
6.22451e-14
7.19407e-14
4.5095e-14
6.11194e-14
5.82922e-14
6.19198e-14
6.23125e-14
5.87065e-14
6.09337e-14
5.55583e-14
5.65662e-14
6.05466e-14
7.49278e-14
5.73402e-14
6.5526e-14
4.83913e-14
6.57e-14
6.71454e-14
5.7855e-14
5.29347e-14
6.22141e-14
5.59702e-14
4.94685e-14
7.11766e-14
4.52844e-14
5.74556e-14
4.83247e-14
5.16865e-14
4.61822e-14
5.15356e-14
6.78822e-14
4.5584e-14
3.53288e-14
4.97262e-14
7.02235e-14
5.27577e-14
5.83357e-14
5.03147e-14
5.10325e-14
6.95607e-14
6.21328e-14
5.74853e-14
6.32532e-14
6.1188e-14
6.78021e-14
5.43482e-14
8.05745e-14
4.89634e-14
7.95577e-14
5.63403e-14
6.93819e-14
6.02127e-14
6.85358e-14
8.24616e-14
5.39401e-14
5.34356e-14
6.60019e-14
6.76614e-14
6.60148e-14
6.26911e-14
7.08511e-14
6.45021e-14
7.75328e-14
5.6835e-14
6.52755e-14
6.8305e-14
7.57827e-14
5.72222e-14
6.33906e-14
6.50976e-14
7.00698e-14
5.4623e-14
7.73707e-14
6.91898e-14
6.30043e-14
6.62547e-14
5.51979e-14
6.35981e-14
5.14882e-14
7.11863e-14
4.45436e-14
5.41891e-14
6.7238e-14
5.44654e-14
4.94743e-14
5.13237e-14
5.39797e-14
3.97383e-14
5.98913e-14
6.7313e-14
5.58391e-14
5.31931e-14
6.11708e-14
5.13455e-14
5.23112e-14
3.48719e-14
6.05682e-14
6.16943e-14
5.71961e-14
4.98189e-14
6.13246e-14
6.49324e-14
3.74867e-14
5.11816e-14
5.35544e-14
4.28369e-14
4.93825e-14
6.62253e-14
4.74029e-14
5.70187e-14
5.2431e-14
4.01065e-14
4.42947e-14
5.00668e-14
5.50427e-14
3.19646e-14
4.85986e-14
5.47363e-14
4.09429e-14
5.68735e-14
4.34719e-14
4.99665e-14
4.27988e-14
5.24093e-14
4.99596e-14
4.63801e-14
3.94883e-14
4.49968e-14
5.59774e-14
4.75806e-14
3.64283e-14
5.78199e-14
4.33405e-14
4.19421e-14
4.56285e-14
4.47737e-14
5.3709e-14
4.82784e-14
4.74047e-14
4.15207e-14
3.0992e-14
5.04889e-14
4.44516e-14
3.31744e-14
3.69627e-14
3.52621e-14
2.43001e-14
2.62992e-14
3.66086e-14
2.83873e-14
2.90076e-14
2.2548e-14
2.56123e-14
2.73685e-14
2.92831e-14
2.52062e-14
2.31059e-14
1.62123e-14
1.52778e-14
2.14973e-14
1.49425e-14
2.4317e-14
1.29466e-14
1.66686e-14
1.94539e-14
2.52167e-14
2.40261e-14
1.58548e-14
1.41645e-14
1.34512e-15
2.46425e-14
1.06223e-14
9.66693e-15
1.86548e-14
1.25269e-14
6.85276e-15
1.60336e-14
2.87498e-15
2.52279e-15
1.47639e-14
-3.1703e-16
1.86879e-15
8.72519e-15
1.33927e-14
2.42885e-15
6.30965e-15
7.29949e-15
1.91947e-14
7.03421e-15
3.97734e-15
1.87552e-15
1.68294e-15
8.12822e-15
5.17122e-15
3.73676e-15
1.27679e-14
1.89588e-14
3.95682e-15
7.09059e-15
4.6628e-15
1.21256e-14
6.98803e-15
1.18093e-15
4.6004e-16
-1.14371e-15
-5.48487e-15
-2.06973e-15
2.06241e-15
7.20741e-15
-5.23817e-15
-3.47584e-15
4.72892e-15
-5.41846e-15
-2.51208e-15
-3.82837e-15
-8.6327e-15
-5.98122e-15
2.75351e-15
-1.01374e-14
-1.08832e-14
-1.23865e-14
-4.87554e-15
-1.53843e-14
-8.68264e-15
-1.89521e-14
-1.70235e-14
-1.30704e-14
-1.24096e-14
-1.24019e-15
-1.39962e-14
-4.01952e-15
-1.15935e-14
-7.9415e-15
-1.33522e-14
-8.64666e-15
-8.11755e-15
-1.34028e-14
-4.10571e-16
-7.986e-15
1.32361e-15
-1.30703e-14
-1.23296e-14
1.49278e-15
-1.23449e-14
-9.38151e-15
-6.88598e-15
-1.37646e-14
-4.53152e-15
-7.37014e-15
-1.49609e-14
2.37611e-15
-6.9461e-15
-7.46562e-15
-5.96338e-15
-3.65161e-15
8.04705e-17
-1.32182e-14
5.93533e-15
2.95459e-15
1.85611e-14
8.93569e-15
1.14842e-14
2.56997e-14
9.12391e-15
1.44777e-14
2.26563e-14
1.8526e-14
1.87352e-14
5.36439e-15
2.33768e-14
1.86754e-14
8.39641e-15
8.66071e-15
1.44893e-14
8.73113e-15
1.00395e-14
1.34588e-14
3.62986e-15
5.6345e-15
2.03637e-15
1.08936e-14
-6.58437e-15
4.02694e-15
4.29016e-15
7.41277e-15
7.37117e-15
1.22626e-14
9.61884e-15
1.02512e-14
1.21728e-14
1.54653e-14
1.07803e-14
1.23618e-14
1.64996e-14
8.86132e-15
8.31904e-15
1.02751e-14
1.21483e-15
4.82746e-15
5.22184e-15
6.07647e-15
4.5942e-15
8.09881e-15
4.49279e-15
4.7927e-15
1.85819e-14
3.8441e-15
1.48548e-14
7.35663e-15
4.41275e-15
1.02092e-14
7.61957e-15
9.38827e-15
3.04249e-15
7.60429e-15
1.07698e-14
7.25439e-15
8.13896e-15
9.33384e-15
6.13283e-15
1.19637e-14
9.53361e-15
4.43877e-15
3.75199e-15
5.91909e-15
4.522e-16
-5.07356e-15
-7.10486e-15
-1.93787e-15
-8.53713e-15
-1.01667e-14
-7.87634e-15
-1.988e-15
-8.89261e-15
-6.42052e-15
1.2596e-15
-5.76858e-16
-3.93766e-15
1.92058e-15
-2.90492e-15
1.16035e-15
2.54522e-15
1.15516e-14
-1.85651e-15
7.28467e-15
3.90291e-15
-3.36491e-15
3.73186e-15
-5.79068e-15
-4.22015e-15
8.20843e-16
-7.1977e-15
-3.31624e-15
6.91568e-15
2.47218e-15
4.91978e-15
-1.29314e-15
6.12883e-15
2.50273e-15
8.76976e-15
1.05151e-14
1.3664e-14
1.629e-14
1.48089e-14
1.46802e-14
2.10434e-14
1.23731e-14
7.83429e-15
2.0603e-14
1.73834e-14
1.39142e-14
2.0926e-14
1.27608e-14
2.13369e-14
1.27935e-14
1.51732e-14
1.49791e-14
2.12749e-14
1.48631e-14
2.53164e-14
1.94214e-14
1.88232e-14
2.19165e-14
2.49568e-14
2.76024e-14
2.73337e-14
2.72223e-14
3.2017e-14
2.32116e-14
2.01759e-14
1.65706e-14
2.78865e-14
1.68818e-14
2.52278e-14
2.41847e-14
3.14015e-14
2.27037e-14
3.06838e-14
1.95963e-14
2.74872e-14
3.60096e-14
3.22688e-14
3.3505e-14
3.54642e-14
4.17903e-14
3.60237e-14
3.74828e-14
4.48283e-14
4.54181e-14
3.97654e-14
4.18354e-14
4.67379e-14
4.04842e-14
4.65392e-14
4.3737e-14
3.64804e-14
3.65704e-14
4.107e-14
3.70087e-14
3.93411e-14
4.57977e-14
3.21559e-14
3.22227e-14
3.71281e-14
4.06486e-14
3.57177e-14
2.80453e-14
2.6367e-14
2.47132e-14
2.60917e-14
2.97454e-14
2.60042e-14
1.91805e-14
1.93477e-14
2.06083e-14
3.0295e-14
2.49119e-14
2.36876e-14
2.45634e-14
1.59702e-14
1.8487e-14
2.22024e-14
2.07672e-14
1.91501e-14
1.25021e-14
1.69124e-14
1.78534e-14
4.75598e-15
5.92984e-15
9.30121e-15
1.33843e-14
1.53385e-14
8.54102e-15
7.11943e-15
8.59274e-15
2.37296e-15
5.58041e-15
-4.56606e-15
-1.88076e-15
1.29116e-15
5.50785e-15
4.58369e-15
1.04218e-14
5.04946e-15
9.67069e-15
6.50374e-15
1.49654e-14
1.21962e-14
1.18108e-14
8.25973e-15
1.42428e-15
4.38112e-15
-1.18669e-15
8.0437e-15
1.53227e-15
1.7133e-15
1.37931e-15
-3.79908e-15
6.1681e-16
-3.21457e-15
-5.96772e-16
)
;

boundaryField
{
    bottom
    {
        type            calculated;
        value           uniform 0;
    }
    top
    {
        type            calculated;
        value           uniform 2.47475e-16;
    }
    walls
    {
        type            calculated;
        value           uniform 0;
    }
}


// ************************************************************************* //
