/*--------------------------------*- C++ -*----------------------------------*\
| =========                 |                                                 |
| \\      /  F ield         | foam-extend: Open Source CFD                    |
|  \\    /   O peration     | Version:     5.0                                |
|   \\  /    A nd           | Web:         http://www.foam-extend.org         |
|    \\/     M anipulation  |                                                 |
\*---------------------------------------------------------------------------*/
FoamFile
{
    version     2.0;
    format      ascii;
    class       surfaceScalarField;
    location    "15000";
    object      phi.gas;
}
// * * * * * * * * * * * * * * * * * * * * * * * * * * * * * * * * * * * * * //

dimensions      [0 3 -1 0 0 0 0];

internalField   nonuniform List<scalar> 
1499
(
6.09726e-11
1.70602e-10
3.33001e-10
5.82707e-10
1.02313e-09
1.47332e-09
1.77741e-09
2.0448e-09
2.2967e-09
2.54062e-09
2.77995e-09
3.01646e-09
3.25111e-09
3.48445e-09
3.71685e-09
3.94852e-09
4.17962e-09
4.41026e-09
4.64051e-09
4.87043e-09
5.10007e-09
5.32945e-09
5.55862e-09
5.78758e-09
6.01636e-09
6.24497e-09
6.47343e-09
6.70175e-09
6.92994e-09
7.15801e-09
7.38596e-09
7.61381e-09
7.84156e-09
8.06922e-09
8.29679e-09
8.52427e-09
8.75167e-09
8.979e-09
9.20626e-09
9.43345e-09
9.66058e-09
9.88765e-09
1.01147e-08
1.03416e-08
1.05685e-08
1.07953e-08
1.10221e-08
1.12489e-08
1.14756e-08
1.17023e-08
1.19289e-08
1.21555e-08
1.2382e-08
1.26085e-08
1.2835e-08
1.30614e-08
1.32878e-08
1.35142e-08
1.37405e-08
1.39668e-08
1.41931e-08
1.44193e-08
1.46456e-08
1.48718e-08
1.50979e-08
1.53241e-08
1.55502e-08
1.57763e-08
1.60024e-08
1.62284e-08
1.64544e-08
1.66804e-08
1.69064e-08
1.71324e-08
1.73583e-08
1.75843e-08
1.78102e-08
1.80361e-08
1.8262e-08
1.84878e-08
1.87137e-08
1.89395e-08
1.91653e-08
1.93911e-08
1.96169e-08
1.98426e-08
2.00684e-08
2.02941e-08
2.05198e-08
2.07455e-08
2.09712e-08
2.11969e-08
2.14226e-08
2.16482e-08
2.18739e-08
2.20995e-08
2.23251e-08
2.25507e-08
2.27763e-08
2.30019e-08
2.32275e-08
2.34531e-08
2.36786e-08
2.39042e-08
2.41297e-08
2.43552e-08
2.45808e-08
2.48063e-08
2.50318e-08
2.52573e-08
2.54827e-08
2.57082e-08
2.59337e-08
2.61591e-08
2.63846e-08
2.661e-08
2.68354e-08
2.70609e-08
2.72863e-08
2.75117e-08
2.77371e-08
2.79625e-08
2.81878e-08
2.84132e-08
2.86386e-08
2.8864e-08
2.90893e-08
2.93147e-08
2.954e-08
2.97653e-08
2.99907e-08
3.0216e-08
3.04413e-08
3.06666e-08
3.08919e-08
3.11172e-08
3.13425e-08
3.15678e-08
3.17931e-08
3.20184e-08
3.22436e-08
3.24689e-08
3.26942e-08
3.29194e-08
3.31447e-08
3.33699e-08
3.35952e-08
3.38204e-08
3.40456e-08
3.42709e-08
3.44961e-08
3.47213e-08
3.49465e-08
3.51717e-08
3.53969e-08
3.56221e-08
3.58473e-08
3.60725e-08
3.62977e-08
3.65228e-08
3.6748e-08
3.69732e-08
3.71984e-08
3.74235e-08
3.76487e-08
3.78738e-08
3.8099e-08
3.83241e-08
3.85493e-08
3.87744e-08
3.89995e-08
3.92247e-08
3.94498e-08
3.96749e-08
3.99001e-08
4.01252e-08
4.03503e-08
4.05754e-08
4.08005e-08
4.10256e-08
4.12507e-08
4.14758e-08
4.17009e-08
4.1926e-08
4.21511e-08
4.23762e-08
4.26012e-08
4.28263e-08
4.30514e-08
4.32765e-08
4.35015e-08
4.37266e-08
4.39517e-08
4.41767e-08
4.44018e-08
4.46268e-08
4.48519e-08
4.50769e-08
4.5302e-08
4.5527e-08
4.57521e-08
4.59771e-08
4.62021e-08
4.64272e-08
4.66522e-08
4.68772e-08
4.71022e-08
4.73273e-08
4.75523e-08
4.77773e-08
4.80023e-08
4.82273e-08
4.84523e-08
4.86773e-08
4.89024e-08
4.91274e-08
4.93524e-08
4.95773e-08
4.98023e-08
5.00273e-08
5.02523e-08
5.04773e-08
5.07023e-08
5.09273e-08
5.11523e-08
5.13773e-08
5.16022e-08
5.18272e-08
5.20522e-08
5.22772e-08
5.25021e-08
5.27271e-08
5.29521e-08
5.3177e-08
5.3402e-08
5.36269e-08
5.38519e-08
5.40769e-08
5.43018e-08
5.45268e-08
5.475e-08
5.4738e-08
3.46016e-08
1.68615e-09
-6.31929e-10
-1.03862e-09
-1.20195e-09
-1.29005e-09
-1.34515e-09
-1.38288e-09
-1.41032e-09
-1.43118e-09
-1.44758e-09
-1.46079e-09
-1.47167e-09
-1.48079e-09
-1.48853e-09
-1.49519e-09
-1.50098e-09
-1.50606e-09
-1.51055e-09
-1.51456e-09
-1.51814e-09
-1.52137e-09
-1.52428e-09
-1.52694e-09
-1.52937e-09
-1.53161e-09
-1.53366e-09
-1.53556e-09
-1.53731e-09
-1.53894e-09
-1.54046e-09
-1.54188e-09
-1.54319e-09
-1.54443e-09
-1.54559e-09
-1.54669e-09
-1.54771e-09
-1.54869e-09
-1.54961e-09
-1.55047e-09
-1.55128e-09
-1.55205e-09
-1.5528e-09
-1.55351e-09
-1.55417e-09
-1.55481e-09
-1.55542e-09
-1.55601e-09
-1.55655e-09
-1.55709e-09
-1.5576e-09
-1.55809e-09
-1.55855e-09
-1.55901e-09
-1.55944e-09
-1.55984e-09
-1.56024e-09
-1.56063e-09
-1.561e-09
-1.56135e-09
-1.56169e-09
-1.56202e-09
-1.56233e-09
-1.56265e-09
-1.56294e-09
-1.56323e-09
-1.56348e-09
-1.56376e-09
-1.56402e-09
-1.56427e-09
-1.5645e-09
-1.56472e-09
-1.56494e-09
-1.56516e-09
-1.56537e-09
-1.56556e-09
-1.56575e-09
-1.56595e-09
-1.56613e-09
-1.56631e-09
-1.56649e-09
-1.56665e-09
-1.56681e-09
-1.56696e-09
-1.5671e-09
-1.56725e-09
-1.56739e-09
-1.56753e-09
-1.56766e-09
-1.5678e-09
-1.56791e-09
-1.56803e-09
-1.56815e-09
-1.56824e-09
-1.56835e-09
-1.56845e-09
-1.56855e-09
-1.56866e-09
-1.56874e-09
-1.56883e-09
-1.56891e-09
-1.569e-09
-1.56908e-09
-1.56917e-09
-1.56925e-09
-1.56931e-09
-1.56938e-09
-1.56944e-09
-1.5695e-09
-1.56955e-09
-1.5696e-09
-1.56966e-09
-1.5697e-09
-1.56975e-09
-1.56981e-09
-1.56986e-09
-1.56992e-09
-1.56996e-09
-1.57e-09
-1.57005e-09
-1.57009e-09
-1.5701e-09
-1.57014e-09
-1.57017e-09
-1.5702e-09
-1.57022e-09
-1.57024e-09
-1.57028e-09
-1.5703e-09
-1.57032e-09
-1.57036e-09
-1.57037e-09
-1.57038e-09
-1.5704e-09
-1.57041e-09
-1.57043e-09
-1.57042e-09
-1.57046e-09
-1.57045e-09
-1.57044e-09
-1.57044e-09
-1.57045e-09
-1.57044e-09
-1.57044e-09
-1.57043e-09
-1.57043e-09
-1.57042e-09
-1.5704e-09
-1.5704e-09
-1.57037e-09
-1.57037e-09
-1.57037e-09
-1.57035e-09
-1.57034e-09
-1.57032e-09
-1.5703e-09
-1.57028e-09
-1.57027e-09
-1.57024e-09
-1.57022e-09
-1.5702e-09
-1.57019e-09
-1.57015e-09
-1.57013e-09
-1.5701e-09
-1.57006e-09
-1.57004e-09
-1.57002e-09
-1.56997e-09
-1.56994e-09
-1.56992e-09
-1.56986e-09
-1.56985e-09
-1.5698e-09
-1.56978e-09
-1.56973e-09
-1.56971e-09
-1.56964e-09
-1.56961e-09
-1.56958e-09
-1.56951e-09
-1.56949e-09
-1.56943e-09
-1.56938e-09
-1.56934e-09
-1.56928e-09
-1.56923e-09
-1.56916e-09
-1.56911e-09
-1.56904e-09
-1.56899e-09
-1.56894e-09
-1.56888e-09
-1.56882e-09
-1.56876e-09
-1.56871e-09
-1.56864e-09
-1.56858e-09
-1.5685e-09
-1.56844e-09
-1.56836e-09
-1.5683e-09
-1.56822e-09
-1.56817e-09
-1.56809e-09
-1.56801e-09
-1.56794e-09
-1.56787e-09
-1.56781e-09
-1.56773e-09
-1.56765e-09
-1.56759e-09
-1.56752e-09
-1.56744e-09
-1.56735e-09
-1.56727e-09
-1.56718e-09
-1.56709e-09
-1.56702e-09
-1.56692e-09
-1.56683e-09
-1.56676e-09
-1.56666e-09
-1.56657e-09
-1.56651e-09
-1.56641e-09
-1.56631e-09
-1.56621e-09
-1.56612e-09
-1.56602e-09
-1.56592e-09
-1.56582e-09
-1.56573e-09
-1.56563e-09
-1.56554e-09
-1.56545e-09
-1.56535e-09
-1.56524e-09
-1.56513e-09
-1.56502e-09
-1.56492e-09
-1.56482e-09
-1.56471e-09
-1.56459e-09
-1.56449e-09
-1.56438e-09
-1.56427e-09
-1.56416e-09
-1.56404e-09
-1.56392e-09
-1.56382e-09
-1.56369e-09
-1.56357e-09
-1.56346e-09
-1.56332e-09
-1.5632e-09
-1.56309e-09
-1.56296e-09
-1.56285e-09
-1.5627e-09
-1.56259e-09
-1.56246e-09
-1.56231e-09
-1.56217e-09
-1.56204e-09
-1.56191e-09
-1.56182e-09
-1.56166e-09
-1.56153e-09
-1.56142e-09
-1.56128e-09
-1.56114e-09
-1.56101e-09
-1.56087e-09
-1.56076e-09
-1.56062e-09
-1.56047e-09
-1.56034e-09
-1.56018e-09
-1.56004e-09
-1.5599e-09
-1.55975e-09
-1.55962e-09
-1.55946e-09
-1.5593e-09
-1.55917e-09
-1.55899e-09
-1.55884e-09
-1.55871e-09
-1.55854e-09
-1.55838e-09
-1.55825e-09
-1.55809e-09
-1.55794e-09
-1.55779e-09
-1.55763e-09
-1.55745e-09
-1.55727e-09
-1.5571e-09
-1.55695e-09
-1.55678e-09
-1.55663e-09
-1.55646e-09
-1.5563e-09
-1.55611e-09
-1.55596e-09
-1.55578e-09
-1.55562e-09
-1.55544e-09
-1.55528e-09
-1.55511e-09
-1.55493e-09
-1.55477e-09
-1.55458e-09
-1.55438e-09
-1.55419e-09
-1.55402e-09
-1.55384e-09
-1.55365e-09
-1.55347e-09
-1.55329e-09
-1.5531e-09
-1.55292e-09
-1.55274e-09
-1.55253e-09
-1.55234e-09
-1.55213e-09
-1.55192e-09
-1.55173e-09
-1.55151e-09
-1.55131e-09
-1.55113e-09
-1.5509e-09
-1.55071e-09
-1.55052e-09
-1.55029e-09
-1.55008e-09
-1.54986e-09
-1.54966e-09
-1.54945e-09
-1.54926e-09
-1.54904e-09
-1.54879e-09
-1.5486e-09
-1.54837e-09
-1.54814e-09
-1.54793e-09
-1.54773e-09
-1.5475e-09
-1.54729e-09
-1.54705e-09
-1.54684e-09
-1.54659e-09
-1.54637e-09
-1.54614e-09
-1.54593e-09
-1.5457e-09
-1.54546e-09
-1.54524e-09
-1.545e-09
-1.54476e-09
-1.54453e-09
-1.5443e-09
-1.54406e-09
-1.54383e-09
-1.54359e-09
-1.54333e-09
-1.54308e-09
-1.54283e-09
-1.54257e-09
-1.54232e-09
-1.54207e-09
-1.54181e-09
-1.54157e-09
-1.5413e-09
-1.54104e-09
-1.5408e-09
-1.54055e-09
-1.54029e-09
-1.54004e-09
-1.5398e-09
-1.53953e-09
-1.53928e-09
-1.53901e-09
-1.53875e-09
-1.53847e-09
-1.5382e-09
-1.53792e-09
-1.53765e-09
-1.53737e-09
-1.5371e-09
-1.5368e-09
-1.53651e-09
-1.53623e-09
-1.53596e-09
-1.53568e-09
-1.5354e-09
-1.53511e-09
-1.53483e-09
-1.53455e-09
-1.53426e-09
-1.53396e-09
-1.53366e-09
-1.5334e-09
-1.53309e-09
-1.53281e-09
-1.53249e-09
-1.5322e-09
-1.53191e-09
-1.5316e-09
-1.5313e-09
-1.53102e-09
-1.5307e-09
-1.5304e-09
-1.53008e-09
-1.52976e-09
-1.52944e-09
-1.52912e-09
-1.52881e-09
-1.52849e-09
-1.52818e-09
-1.52786e-09
-1.52753e-09
-1.5272e-09
-1.52688e-09
-1.52654e-09
-1.5262e-09
-1.52587e-09
-1.52553e-09
-1.5252e-09
-1.52484e-09
-1.52451e-09
-1.52417e-09
-1.52384e-09
-1.52351e-09
-1.52316e-09
-1.52282e-09
-1.52249e-09
-1.52214e-09
-1.52179e-09
-1.52142e-09
-1.52106e-09
-1.5207e-09
-1.52035e-09
-1.51998e-09
-1.51962e-09
-1.51925e-09
-1.5189e-09
-1.51854e-09
-1.51817e-09
-1.5178e-09
-1.51743e-09
-1.51705e-09
-1.51668e-09
-1.51629e-09
-1.51591e-09
-1.51553e-09
-1.51517e-09
-1.5148e-09
-1.51442e-09
-1.51401e-09
-1.51362e-09
-1.51325e-09
-1.51284e-09
-1.51245e-09
-1.51204e-09
-1.51164e-09
-1.51124e-09
-1.51084e-09
-1.51042e-09
-1.51005e-09
-1.50965e-09
-1.50923e-09
-1.50882e-09
-1.50839e-09
-1.50799e-09
-1.5076e-09
-1.50718e-09
-1.50673e-09
-1.50633e-09
-1.50589e-09
-1.50549e-09
-1.50504e-09
-1.50464e-09
-1.5042e-09
-1.50376e-09
-1.50331e-09
-1.50289e-09
-1.50246e-09
-1.50201e-09
-1.50157e-09
-1.50111e-09
-1.50067e-09
-1.5002e-09
-1.49975e-09
-1.4993e-09
-1.49885e-09
-1.49839e-09
-1.49793e-09
-1.49745e-09
-1.497e-09
-1.49654e-09
-1.49608e-09
-1.49561e-09
-1.49513e-09
-1.49468e-09
-1.49421e-09
-1.49373e-09
-1.49324e-09
-1.49276e-09
-1.49228e-09
-1.4918e-09
-1.49129e-09
-1.49083e-09
-1.49035e-09
-1.48988e-09
-1.48937e-09
-1.48889e-09
-1.4884e-09
-1.4879e-09
-1.4874e-09
-1.4869e-09
-1.4864e-09
-1.4859e-09
-1.48537e-09
-1.48486e-09
-1.48435e-09
-1.48383e-09
-1.4833e-09
-1.48277e-09
-1.48226e-09
-1.48173e-09
-1.48121e-09
-1.48068e-09
-1.48014e-09
-1.47962e-09
-1.47909e-09
-1.47853e-09
-1.478e-09
-1.47746e-09
-1.47692e-09
-1.47636e-09
-1.47581e-09
-1.47525e-09
-1.47471e-09
-1.47416e-09
-1.4736e-09
-1.47304e-09
-1.47247e-09
-1.4719e-09
-1.47133e-09
-1.47078e-09
-1.4702e-09
-1.46963e-09
-1.46906e-09
-1.46846e-09
-1.46789e-09
-1.46731e-09
-1.46673e-09
-1.46612e-09
-1.46554e-09
-1.46492e-09
-1.46434e-09
-1.46374e-09
-1.46315e-09
-1.46254e-09
-1.46193e-09
-1.46132e-09
-1.46072e-09
-1.46012e-09
-1.4595e-09
-1.45889e-09
-1.45825e-09
-1.45764e-09
-1.45699e-09
-1.45637e-09
-1.45573e-09
-1.45511e-09
-1.45446e-09
-1.45383e-09
-1.45319e-09
-1.45253e-09
-1.45189e-09
-1.45123e-09
-1.45059e-09
-1.44993e-09
-1.44927e-09
-1.44861e-09
-1.44795e-09
-1.44729e-09
-1.44661e-09
-1.44594e-09
-1.44524e-09
-1.4446e-09
-1.44393e-09
-1.44323e-09
-1.44255e-09
-1.44187e-09
-1.44118e-09
-1.44048e-09
-1.4398e-09
-1.4391e-09
-1.4384e-09
-1.43769e-09
-1.437e-09
-1.43627e-09
-1.43556e-09
-1.43484e-09
-1.43413e-09
-1.43342e-09
-1.4327e-09
-1.43194e-09
-1.43123e-09
-1.43051e-09
-1.42976e-09
-1.42901e-09
-1.42827e-09
-1.42752e-09
-1.42676e-09
-1.42602e-09
-1.42528e-09
-1.42454e-09
-1.42379e-09
-1.42302e-09
-1.42226e-09
-1.42147e-09
-1.42071e-09
-1.41995e-09
-1.41917e-09
-1.41839e-09
-1.41759e-09
-1.41682e-09
-1.41603e-09
-1.41524e-09
-1.41446e-09
-1.41368e-09
-1.41287e-09
-1.41208e-09
-1.41129e-09
-1.41047e-09
-1.40964e-09
-1.40883e-09
-1.40801e-09
-1.40719e-09
-1.40639e-09
-1.40556e-09
-1.40473e-09
-1.40388e-09
-1.40304e-09
-1.40222e-09
-1.4014e-09
-1.40055e-09
-1.39969e-09
-1.39884e-09
-1.39799e-09
-1.39714e-09
-1.39628e-09
-1.3954e-09
-1.39455e-09
-1.39367e-09
-1.3928e-09
-1.39192e-09
-1.39103e-09
-1.39017e-09
-1.38927e-09
-1.3884e-09
-1.38751e-09
-1.38659e-09
-1.3857e-09
-1.38477e-09
-1.38386e-09
-1.38296e-09
-1.38206e-09
-1.38113e-09
-1.3802e-09
-1.3793e-09
-1.37834e-09
-1.37742e-09
-1.37648e-09
-1.37556e-09
-1.37464e-09
-1.37368e-09
-1.37274e-09
-1.37178e-09
-1.37081e-09
-1.36989e-09
-1.3689e-09
-1.36796e-09
-1.36702e-09
-1.36602e-09
-1.36505e-09
-1.36405e-09
-1.3631e-09
-1.36209e-09
-1.36111e-09
-1.3601e-09
-1.35912e-09
-1.35812e-09
-1.35714e-09
-1.3561e-09
-1.35509e-09
-1.35408e-09
-1.35304e-09
-1.35203e-09
-1.35099e-09
-1.34994e-09
-1.34891e-09
-1.34785e-09
-1.34681e-09
-1.34576e-09
-1.3447e-09
-1.34364e-09
-1.34261e-09
-1.34156e-09
-1.3405e-09
-1.33944e-09
-1.33838e-09
-1.3373e-09
-1.33626e-09
-1.33517e-09
-1.33405e-09
-1.33299e-09
-1.33188e-09
-1.33074e-09
-1.32964e-09
-1.32853e-09
-1.32741e-09
-1.3263e-09
-1.32517e-09
-1.32402e-09
-1.32288e-09
-1.32174e-09
-1.32063e-09
-1.31947e-09
-1.31835e-09
-1.31718e-09
-1.31601e-09
-1.31483e-09
-1.31365e-09
-1.31247e-09
-1.31128e-09
-1.31009e-09
-1.3089e-09
-1.3077e-09
-1.30651e-09
-1.30533e-09
-1.30415e-09
-1.30291e-09
-1.30172e-09
-1.30052e-09
-1.29932e-09
-1.2981e-09
-1.2969e-09
-1.29568e-09
-1.29443e-09
-1.29315e-09
-1.29192e-09
-1.29068e-09
-1.28943e-09
-1.2882e-09
-1.28692e-09
-1.28569e-09
-1.2844e-09
-1.28314e-09
-1.28186e-09
-1.28057e-09
-1.27927e-09
-1.27799e-09
-1.27673e-09
-1.2754e-09
-1.27411e-09
-1.27278e-09
-1.27143e-09
-1.27014e-09
-1.26879e-09
-1.26744e-09
-1.26609e-09
-1.26475e-09
-1.26343e-09
-1.26207e-09
-1.26072e-09
-1.25937e-09
-1.25801e-09
-1.25664e-09
-1.25528e-09
-1.25392e-09
-1.25254e-09
-1.25115e-09
-1.24974e-09
-1.24837e-09
-1.24697e-09
-1.24559e-09
-1.24416e-09
-1.24275e-09
-1.24136e-09
-1.23994e-09
-1.23851e-09
-1.2371e-09
-1.23568e-09
-1.23421e-09
-1.2328e-09
-1.23135e-09
-1.22991e-09
-1.22844e-09
-1.22698e-09
-1.22551e-09
-1.22402e-09
-1.22257e-09
-1.22109e-09
-1.21957e-09
-1.21804e-09
-1.21656e-09
-1.21506e-09
-1.21355e-09
-1.21202e-09
-1.21049e-09
-1.20896e-09
-1.20744e-09
-1.20589e-09
-1.20435e-09
-1.2028e-09
-1.20125e-09
-1.19967e-09
-1.19813e-09
-1.19653e-09
-1.19499e-09
-1.19339e-09
-1.19181e-09
-1.19021e-09
-1.18861e-09
-1.18705e-09
-1.18544e-09
-1.18381e-09
-1.18219e-09
-1.18057e-09
-1.17895e-09
-1.1773e-09
-1.17567e-09
-1.17401e-09
-1.17239e-09
-1.17073e-09
-1.16906e-09
-1.16738e-09
-1.16574e-09
-1.16406e-09
-1.16237e-09
-1.16067e-09
-1.15899e-09
-1.15727e-09
-1.15557e-09
-1.15388e-09
-1.15216e-09
-1.15045e-09
-1.14873e-09
-1.147e-09
-1.14526e-09
-1.14354e-09
-1.14176e-09
-1.14001e-09
-1.13826e-09
-1.1365e-09
-1.13472e-09
-1.13295e-09
-1.13117e-09
-1.12934e-09
-1.12752e-09
-1.12573e-09
-1.12392e-09
-1.12211e-09
-1.12031e-09
-1.11849e-09
-1.11666e-09
-1.11478e-09
-1.11292e-09
-1.11107e-09
-1.10923e-09
-1.10734e-09
-1.10547e-09
-1.10363e-09
-1.10173e-09
-1.09984e-09
-1.09796e-09
-1.09603e-09
-1.09411e-09
-1.09221e-09
-1.09028e-09
-1.08836e-09
-1.08645e-09
-1.0845e-09
-1.08254e-09
-1.08059e-09
-1.07865e-09
-1.07666e-09
-1.07468e-09
-1.0727e-09
-1.0707e-09
-1.06873e-09
-1.06671e-09
-1.06471e-09
-1.06268e-09
-1.06067e-09
-1.05866e-09
-1.05663e-09
-1.05458e-09
-1.05251e-09
-1.05047e-09
-1.04843e-09
-1.04633e-09
-1.04427e-09
-1.0422e-09
-1.0401e-09
-1.038e-09
-1.03587e-09
-1.03379e-09
-1.03168e-09
-1.02957e-09
-1.02746e-09
-1.02529e-09
-1.02316e-09
-1.02104e-09
-1.01888e-09
-1.01673e-09
-1.01458e-09
-1.0124e-09
-1.01019e-09
-1.00802e-09
-1.00582e-09
-1.00363e-09
-1.00141e-09
-9.99182e-10
-9.96947e-10
-9.94729e-10
-9.92491e-10
-9.90262e-10
-9.88004e-10
-9.85728e-10
-9.8346e-10
-9.81164e-10
-9.78894e-10
-9.76597e-10
-9.74281e-10
-9.71956e-10
-9.69639e-10
-9.6734e-10
-9.65023e-10
-9.62697e-10
-9.60308e-10
-9.57981e-10
-9.55611e-10
-9.53222e-10
-9.50869e-10
-9.4849e-10
-9.46083e-10
-9.43705e-10
-9.413e-10
-9.3886e-10
-9.36464e-10
-9.34025e-10
-9.3156e-10
-9.29104e-10
-9.26667e-10
-9.24195e-10
-9.21715e-10
-9.19199e-10
-9.16748e-10
-9.14261e-10
-9.11758e-10
-9.09246e-10
-9.0671e-10
-9.04183e-10
-9.01639e-10
-8.9907e-10
-8.96502e-10
-8.9398e-10
-8.91396e-10
-8.88823e-10
-8.86224e-10
-8.83644e-10
-8.81066e-10
-8.78453e-10
-8.75842e-10
-8.73223e-10
-8.7057e-10
-8.67917e-10
-8.65249e-10
-8.62618e-10
-8.59935e-10
-8.57244e-10
-8.54581e-10
-8.51884e-10
-8.49179e-10
-8.46476e-10
-8.43738e-10
-8.41002e-10
-8.38294e-10
-8.35551e-10
-8.32793e-10
-8.30017e-10
-8.2726e-10
-8.24478e-10
-8.21698e-10
-8.18901e-10
-8.16069e-10
-8.13239e-10
-8.10392e-10
-8.07572e-10
-8.04709e-10
-8.01874e-10
-7.99005e-10
-7.96136e-10
-7.93242e-10
-7.90349e-10
-7.87456e-10
-7.84519e-10
-7.81601e-10
-7.78666e-10
-7.75768e-10
-7.72808e-10
-7.69829e-10
-7.66897e-10
-7.63911e-10
-7.60944e-10
-7.57951e-10
-7.5493e-10
-7.51919e-10
-7.48908e-10
-7.45844e-10
-7.42824e-10
-7.39777e-10
-7.36721e-10
-7.33638e-10
-7.30547e-10
-7.2749e-10
-7.24344e-10
-7.21215e-10
-7.18068e-10
-7.14955e-10
-7.11816e-10
-7.0863e-10
-7.05515e-10
-7.02337e-10
-6.99139e-10
-6.95967e-10
-6.92785e-10
-6.8961e-10
-6.86354e-10
-6.83149e-10
-6.79951e-10
-6.76708e-10
-6.73444e-10
-6.70204e-10
-6.66927e-10
-6.63648e-10
-6.60384e-10
-6.57082e-10
-6.53777e-10
-6.50442e-10
-6.47159e-10
-6.43792e-10
-6.40439e-10
-6.37065e-10
-6.33688e-10
-6.30298e-10
-6.26914e-10
-6.23508e-10
-6.2008e-10
-6.16666e-10
-6.13247e-10
-6.09797e-10
-6.06343e-10
-6.02902e-10
-5.99438e-10
-5.95961e-10
-5.92495e-10
-5.88989e-10
-5.85469e-10
-5.81952e-10
-5.7842e-10
-5.74874e-10
-5.7133e-10
-5.67762e-10
-5.64152e-10
-5.60606e-10
-5.56983e-10
-5.53415e-10
-5.49805e-10
-5.46169e-10
-5.42544e-10
-5.38892e-10
-5.35261e-10
-5.31576e-10
-5.27901e-10
-5.24227e-10
-5.20527e-10
-5.16817e-10
-5.13108e-10
-5.09372e-10
-5.05644e-10
-5.01916e-10
-4.98169e-10
-4.94395e-10
-4.90646e-10
-4.86878e-10
-4.83091e-10
-4.79275e-10
-4.75484e-10
-4.71656e-10
-4.67807e-10
-4.63947e-10
-4.60111e-10
-4.56227e-10
-4.52322e-10
-4.48441e-10
-4.44547e-10
-4.40624e-10
-4.36722e-10
-4.32772e-10
-4.28827e-10
-4.24849e-10
-4.20931e-10
-4.16935e-10
-4.1297e-10
-4.09e-10
-4.04988e-10
-4.01007e-10
-3.96983e-10
-3.92944e-10
-3.88926e-10
-3.84856e-10
-3.80771e-10
-3.76705e-10
-3.72631e-10
-3.6855e-10
-3.64435e-10
-3.60329e-10
-3.56189e-10
-3.52049e-10
-3.479e-10
-3.43743e-10
-3.39585e-10
-3.35418e-10
-3.31224e-10
-3.27073e-10
-3.22886e-10
-3.18644e-10
-3.14437e-10
-3.10227e-10
-3.05971e-10
-3.01749e-10
-2.9748e-10
-2.93244e-10
-2.8897e-10
-2.84683e-10
-2.80385e-10
-2.76092e-10
-2.7176e-10
-2.6746e-10
-2.63138e-10
-2.58794e-10
-2.54437e-10
-2.50075e-10
-2.45717e-10
-2.41345e-10
-2.3696e-10
-2.32604e-10
-2.28226e-10
-2.23832e-10
-2.19388e-10
-2.15e-10
-2.10544e-10
-2.06107e-10
-2.01646e-10
-1.97214e-10
-1.9273e-10
-1.88301e-10
-1.83794e-10
-1.79279e-10
-1.74792e-10
-1.70288e-10
-1.65767e-10
-1.61237e-10
-1.56726e-10
-1.52189e-10
-1.47625e-10
-1.43079e-10
-1.38541e-10
-1.33977e-10
-1.29394e-10
-1.24838e-10
-1.20245e-10
-1.15669e-10
-1.11101e-10
-1.06496e-10
-1.01881e-10
-9.72739e-11
-9.2647e-11
-8.8001e-11
-8.34156e-11
-7.87746e-11
-7.41144e-11
-6.94517e-11
-6.48137e-11
-6.01825e-11
-5.55229e-11
-5.08514e-11
-4.61681e-11
-4.14737e-11
-3.67946e-11
-3.21217e-11
-2.74284e-11
-2.27051e-11
-1.79613e-11
-1.32593e-11
-8.54512e-12
-3.81928e-12
8.83057e-13
5.62401e-12
1.0386e-11
1.51244e-11
1.98566e-11
2.45927e-11
2.93671e-11
3.41184e-11
3.88369e-11
4.3612e-11
4.83995e-11
5.31902e-11
5.79746e-11
6.27363e-11
6.75179e-11
7.23033e-11
7.70736e-11
8.18735e-11
8.66408e-11
9.14465e-11
9.62641e-11
1.01094e-10
1.05899e-10
1.10733e-10
1.15526e-10
1.20356e-10
1.25172e-10
1.30015e-10
1.34835e-10
1.39647e-10
1.44453e-10
1.49252e-10
1.54088e-10
1.58898e-10
1.63755e-10
1.6856e-10
1.73392e-10
1.78216e-10
1.83033e-10
1.87877e-10
1.92694e-10
1.97539e-10
)
;

boundaryField
{
    bottom
    {
        type            fixedValue;
        value           uniform 0;
    }
    top
    {
        type            calculated;
        value           uniform 2.02376e-10;
    }
    walls
    {
        type            fixedValue;
        value           uniform 0;
    }
}


// ************************************************************************* //
