/*--------------------------------*- C++ -*----------------------------------*\
| =========                 |                                                 |
| \\      /  F ield         | foam-extend: Open Source CFD                    |
|  \\    /   O peration     | Version:     5.0                                |
|   \\  /    A nd           | Web:         http://www.foam-extend.org         |
|    \\/     M anipulation  |                                                 |
\*---------------------------------------------------------------------------*/
FoamFile
{
    version     2.0;
    format      ascii;
    class       surfaceScalarField;
    location    "15000";
    object      phi.water;
}
// * * * * * * * * * * * * * * * * * * * * * * * * * * * * * * * * * * * * * //

dimensions      [0 3 -1 0 0 0 0];

internalField   nonuniform List<scalar> 
1499
(
1.57947e-13
-3.67771e-13
-5.53464e-14
2.44584e-13
-2.55036e-13
4.75312e-13
-2.8659e-13
9.03429e-14
-1.86393e-13
1.03848e-14
6.20054e-14
4.1977e-14
-2.48018e-13
1.16772e-13
4.92288e-14
7.30813e-15
-2.23483e-13
-1.27205e-13
5.11067e-14
-1.72378e-13
-9.52469e-14
-3.66827e-13
8.33957e-14
-2.45553e-13
1.09772e-13
-2.90434e-13
-2.03199e-13
-1.31108e-13
-1.81815e-13
-5.61505e-14
-3.32067e-13
-3.3321e-13
-7.76542e-14
-5.34044e-13
1.45577e-13
-4.83642e-13
-9.76625e-14
-6.10917e-13
1.55255e-13
-4.961e-13
-3.17859e-13
-5.8233e-13
-4.58004e-13
-2.92373e-13
-1.79055e-13
-6.94226e-13
-3.80365e-13
-5.87814e-13
-5.61497e-13
-1.02618e-13
-6.33794e-13
-6.15135e-13
-5.53568e-13
-5.40864e-13
-6.08979e-13
-3.98568e-13
-1.09574e-12
-5.39694e-13
-6.47289e-13
-6.46392e-13
-8.0345e-13
-6.80126e-13
-7.6209e-13
-7.67509e-13
-1.03902e-12
-6.5434e-13
-8.99499e-13
-7.85256e-13
-9.54236e-13
-1.0445e-12
-1.01122e-12
-1.10318e-12
-8.06528e-13
-1.16943e-12
-1.10918e-12
-1.20533e-12
-1.10106e-12
-8.88063e-13
-1.382e-12
-1.51276e-12
-1.53246e-12
-9.3022e-13
-1.2257e-12
-1.25428e-12
-1.35981e-12
-1.65488e-12
-1.29092e-12
-1.55726e-12
-1.46264e-12
-1.49483e-12
-1.76159e-12
-1.74651e-12
-1.54352e-12
-1.8916e-12
-1.33203e-12
-2.07436e-12
-1.79442e-12
-1.70812e-12
-1.98034e-12
-2.09573e-12
-1.77428e-12
-1.89393e-12
-2.1697e-12
-2.08354e-12
-2.04815e-12
-2.24593e-12
-2.1638e-12
-2.05164e-12
-2.33118e-12
-2.32869e-12
-2.5298e-12
-2.4162e-12
-2.4169e-12
-2.22932e-12
-2.59184e-12
-2.67049e-12
-2.56138e-12
-2.5326e-12
-2.7721e-12
-2.6653e-12
-2.94918e-12
-2.72039e-12
-2.8497e-12
-3.13594e-12
-2.9069e-12
-2.8827e-12
-3.40365e-12
-2.94159e-12
-2.91939e-12
-3.36676e-12
-3.53044e-12
-3.03667e-12
-3.56495e-12
-3.1835e-12
-3.55503e-12
-3.45629e-12
-3.54685e-12
-3.52873e-12
-3.89976e-12
-3.67731e-12
-3.65954e-12
-4.03299e-12
-3.73379e-12
-3.95319e-12
-3.85781e-12
-4.03357e-12
-3.9395e-12
-4.70667e-12
-3.85911e-12
-3.96083e-12
-4.20951e-12
-4.66246e-12
-4.39178e-12
-4.59145e-12
-4.18743e-12
-4.62594e-12
-4.82857e-12
-4.65649e-12
-4.93948e-12
-4.90442e-12
-4.8152e-12
-5.09722e-12
-4.75484e-12
-4.98037e-12
-5.42026e-12
-5.15671e-12
-4.91139e-12
-5.43536e-12
-5.56259e-12
-5.24126e-12
-5.60641e-12
-5.50201e-12
-5.49693e-12
-5.7851e-12
-5.60365e-12
-6.22416e-12
-5.88342e-12
-5.85926e-12
-6.01349e-12
-5.99054e-12
-6.27955e-12
-6.20043e-12
-5.86587e-12
-6.62977e-12
-6.46991e-12
-6.45102e-12
-6.58266e-12
-6.66591e-12
-6.95663e-12
-6.62038e-12
-6.62576e-12
-7.07989e-12
-6.89815e-12
-7.14403e-12
-7.12068e-12
-7.02595e-12
-7.50244e-12
-7.17171e-12
-7.54668e-12
-7.47403e-12
-7.4598e-12
-7.59985e-12
-7.45592e-12
-8.1449e-12
-7.65837e-12
-7.98375e-12
-7.97029e-12
-8.03638e-12
-8.20374e-12
-8.03728e-12
-8.57005e-12
-8.50636e-12
-8.41407e-12
-8.64044e-12
-8.64961e-12
-8.64274e-12
-8.4767e-12
-9.12212e-12
-8.87259e-12
-9.10332e-12
-9.34954e-12
-8.7973e-12
-9.49377e-12
-9.27651e-12
-9.50488e-12
-9.57724e-12
-9.82813e-12
-9.58758e-12
-9.81665e-12
-9.83649e-12
-9.67882e-12
-9.98539e-12
-1.03247e-11
-1.00843e-11
-1.03932e-11
-1.01043e-11
-1.06531e-11
-1.06463e-11
-1.0517e-11
-1.09396e-11
-1.08961e-11
-1.08265e-11
-1.08831e-11
-9.77703e-12
1.11655e-11
3.25288e-11
5.38479e-11
7.51649e-11
9.69888e-11
1.18584e-10
1.4034e-10
1.62761e-10
1.84238e-10
2.06986e-10
2.28708e-10
2.51971e-10
2.74512e-10
2.97505e-10
3.20492e-10
3.43235e-10
3.66044e-10
3.90378e-10
4.13088e-10
4.36179e-10
4.61652e-10
4.84951e-10
5.09195e-10
5.32373e-10
5.57427e-10
5.82078e-10
6.06501e-10
6.30806e-10
6.55735e-10
6.80281e-10
7.06899e-10
7.31654e-10
7.56837e-10
7.81432e-10
8.08935e-10
8.32527e-10
8.59292e-10
8.8626e-10
9.11925e-10
9.38484e-10
9.66257e-10
9.9058e-10
1.01768e-09
1.04733e-09
1.07204e-09
1.09683e-09
1.12745e-09
1.15465e-09
1.18277e-09
1.2087e-09
1.23978e-09
1.26341e-09
1.29288e-09
1.32149e-09
1.3515e-09
1.37666e-09
1.40707e-09
1.4381e-09
1.46283e-09
1.49684e-09
1.52337e-09
1.5522e-09
1.58121e-09
1.60929e-09
1.6461e-09
1.669e-09
1.70372e-09
1.72759e-09
1.7624e-09
1.79439e-09
1.82364e-09
1.85426e-09
1.87974e-09
1.91764e-09
1.94933e-09
1.97661e-09
2.00872e-09
2.04258e-09
2.06799e-09
2.10641e-09
2.13544e-09
2.16765e-09
2.20161e-09
2.23071e-09
2.26988e-09
2.29364e-09
2.33366e-09
2.36206e-09
2.39372e-09
2.43239e-09
2.45779e-09
2.49939e-09
2.52936e-09
2.56196e-09
2.5998e-09
2.63129e-09
2.6639e-09
2.70148e-09
2.73259e-09
2.76909e-09
2.80368e-09
2.83615e-09
2.8718e-09
2.90584e-09
2.94435e-09
2.97856e-09
3.01089e-09
3.05218e-09
3.08528e-09
3.1183e-09
3.15686e-09
3.19469e-09
3.23143e-09
3.26532e-09
3.30027e-09
3.33713e-09
3.37625e-09
3.41089e-09
3.44322e-09
3.49311e-09
3.52015e-09
3.56546e-09
3.59704e-09
3.63422e-09
3.67607e-09
3.71393e-09
3.75149e-09
3.78768e-09
3.82789e-09
3.86282e-09
3.90487e-09
3.94099e-09
3.98501e-09
4.01567e-09
4.06957e-09
4.09237e-09
4.13853e-09
4.18344e-09
4.21651e-09
4.25768e-09
4.29797e-09
4.33452e-09
4.38455e-09
4.42093e-09
4.4535e-09
4.50483e-09
4.53936e-09
4.58624e-09
4.61952e-09
4.66521e-09
4.71133e-09
4.74105e-09
4.78746e-09
4.83179e-09
4.87484e-09
4.91013e-09
4.95908e-09
4.99867e-09
5.04285e-09
5.08207e-09
5.12746e-09
5.16587e-09
5.21478e-09
5.25436e-09
5.30133e-09
5.33846e-09
5.38698e-09
5.43139e-09
5.46886e-09
5.52197e-09
5.55505e-09
5.60945e-09
5.6472e-09
5.69618e-09
5.73128e-09
5.78741e-09
5.82921e-09
5.86959e-09
5.92008e-09
5.96028e-09
6.00927e-09
6.05424e-09
6.09795e-09
6.14619e-09
6.18894e-09
6.23768e-09
6.28265e-09
6.33032e-09
6.37662e-09
6.42073e-09
6.47015e-09
6.51636e-09
6.56463e-09
6.60862e-09
6.65636e-09
6.70257e-09
6.75532e-09
6.79664e-09
6.84902e-09
6.8941e-09
6.94826e-09
6.98836e-09
7.03953e-09
7.08654e-09
7.13795e-09
7.1883e-09
7.23237e-09
7.28255e-09
7.3318e-09
7.38138e-09
7.42847e-09
7.47805e-09
7.53057e-09
7.58104e-09
7.6281e-09
7.6828e-09
7.72838e-09
7.7797e-09
7.83185e-09
7.87661e-09
7.93352e-09
7.98393e-09
8.02921e-09
8.08558e-09
8.13417e-09
8.18848e-09
8.23792e-09
8.28974e-09
8.33945e-09
8.39498e-09
8.44628e-09
8.4986e-09
8.54993e-09
8.60015e-09
8.65147e-09
8.7105e-09
8.75717e-09
8.81654e-09
8.86584e-09
8.91607e-09
8.97237e-09
9.02826e-09
9.07729e-09
9.13436e-09
9.18618e-09
9.2393e-09
9.29575e-09
9.35221e-09
9.40078e-09
9.45763e-09
9.51356e-09
9.565e-09
9.62379e-09
9.67973e-09
9.72895e-09
9.79051e-09
9.83892e-09
9.90349e-09
9.95175e-09
1.00078e-08
1.00685e-08
1.01224e-08
1.01796e-08
1.0239e-08
1.0285e-08
1.03485e-08
1.04078e-08
1.04601e-08
1.05149e-08
1.05783e-08
1.06324e-08
1.06936e-08
1.07436e-08
1.08055e-08
1.08658e-08
1.09182e-08
1.09787e-08
1.1038e-08
1.1094e-08
1.11571e-08
1.12086e-08
1.12699e-08
1.13357e-08
1.13849e-08
1.14474e-08
1.1513e-08
1.15633e-08
1.16238e-08
1.16894e-08
1.17452e-08
1.18041e-08
1.18659e-08
1.19246e-08
1.19847e-08
1.20415e-08
1.2112e-08
1.2168e-08
1.22269e-08
1.22918e-08
1.23495e-08
1.24092e-08
1.24704e-08
1.25365e-08
1.25931e-08
1.26587e-08
1.27205e-08
1.27822e-08
1.28414e-08
1.2906e-08
1.29709e-08
1.3025e-08
1.30909e-08
1.31563e-08
1.32216e-08
1.32802e-08
1.33452e-08
1.34085e-08
1.34709e-08
1.35321e-08
1.36015e-08
1.36628e-08
1.37229e-08
1.37912e-08
1.38526e-08
1.39184e-08
1.39841e-08
1.4046e-08
1.41134e-08
1.41811e-08
1.42388e-08
1.43083e-08
1.43711e-08
1.44366e-08
1.45035e-08
1.45698e-08
1.46364e-08
1.46984e-08
1.477e-08
1.48305e-08
1.48942e-08
1.49694e-08
1.50307e-08
1.50961e-08
1.51686e-08
1.52341e-08
1.52951e-08
1.53677e-08
1.54322e-08
1.55009e-08
1.55666e-08
1.56383e-08
1.57041e-08
1.57725e-08
1.58405e-08
1.59058e-08
1.59795e-08
1.60422e-08
1.61127e-08
1.61841e-08
1.62507e-08
1.63186e-08
1.63894e-08
1.64573e-08
1.65286e-08
1.65962e-08
1.66669e-08
1.67347e-08
1.68063e-08
1.68794e-08
1.69433e-08
1.70168e-08
1.70879e-08
1.71598e-08
1.72286e-08
1.7299e-08
1.73694e-08
1.74419e-08
1.75117e-08
1.75813e-08
1.76555e-08
1.77252e-08
1.77988e-08
1.78684e-08
1.7942e-08
1.80132e-08
1.80865e-08
1.81558e-08
1.82331e-08
1.83008e-08
1.83749e-08
1.84506e-08
1.85242e-08
1.85919e-08
1.86687e-08
1.87403e-08
1.88166e-08
1.88862e-08
1.89614e-08
1.90374e-08
1.91082e-08
1.91858e-08
1.92578e-08
1.93321e-08
1.94056e-08
1.94832e-08
1.95562e-08
1.96299e-08
1.97047e-08
1.97834e-08
1.98555e-08
1.99302e-08
2.00081e-08
2.00833e-08
2.01557e-08
2.02355e-08
2.0313e-08
2.03865e-08
2.04621e-08
2.05394e-08
2.06149e-08
2.06928e-08
2.07708e-08
2.08438e-08
2.09234e-08
2.09992e-08
2.10789e-08
2.11535e-08
2.12303e-08
2.13123e-08
2.13877e-08
2.14668e-08
2.1545e-08
2.16203e-08
2.17003e-08
2.17797e-08
2.1856e-08
2.19361e-08
2.20125e-08
2.20939e-08
2.21734e-08
2.22514e-08
2.23301e-08
2.24111e-08
2.2489e-08
2.25701e-08
2.26503e-08
2.2727e-08
2.28112e-08
2.28888e-08
2.29697e-08
2.30514e-08
2.31282e-08
2.32119e-08
2.32916e-08
2.33758e-08
2.34529e-08
2.3535e-08
2.36129e-08
2.36982e-08
2.37823e-08
2.38585e-08
2.39441e-08
2.40225e-08
2.4107e-08
2.4189e-08
2.4273e-08
2.43515e-08
2.44397e-08
2.45174e-08
2.45982e-08
2.46882e-08
2.47636e-08
2.48547e-08
2.49343e-08
2.50153e-08
2.50976e-08
2.51894e-08
2.52644e-08
2.53534e-08
2.54349e-08
2.55233e-08
2.56028e-08
2.56887e-08
2.57717e-08
2.58607e-08
2.59427e-08
2.60253e-08
2.61133e-08
2.6194e-08
2.62849e-08
2.63659e-08
2.64558e-08
2.65402e-08
2.66266e-08
2.67101e-08
2.67953e-08
2.68809e-08
2.69721e-08
2.70535e-08
2.71432e-08
2.72279e-08
2.73133e-08
2.74041e-08
2.74891e-08
2.75736e-08
2.76631e-08
2.77493e-08
2.78397e-08
2.79238e-08
2.80108e-08
2.8104e-08
2.81887e-08
2.82773e-08
2.8362e-08
2.84549e-08
2.85395e-08
2.86298e-08
2.87168e-08
2.88061e-08
2.88966e-08
2.8985e-08
2.90717e-08
2.91644e-08
2.9252e-08
2.93431e-08
2.94312e-08
2.95182e-08
2.9614e-08
2.96985e-08
2.97914e-08
2.98823e-08
2.99696e-08
3.00635e-08
3.01515e-08
3.02399e-08
3.03338e-08
3.04255e-08
3.05137e-08
3.06054e-08
3.06988e-08
3.07883e-08
3.08797e-08
3.09721e-08
3.10618e-08
3.11563e-08
3.12452e-08
3.13389e-08
3.14305e-08
3.1525e-08
3.16139e-08
3.17075e-08
3.18019e-08
3.18919e-08
3.19875e-08
3.20782e-08
3.21719e-08
3.22626e-08
3.236e-08
3.24487e-08
3.25482e-08
3.26376e-08
3.27331e-08
3.2825e-08
3.29189e-08
3.30155e-08
3.3109e-08
3.32009e-08
3.3298e-08
3.33907e-08
3.34846e-08
3.35818e-08
3.36716e-08
3.37719e-08
3.38654e-08
3.39621e-08
3.40533e-08
3.41527e-08
3.42459e-08
3.4339e-08
3.44413e-08
3.4531e-08
3.46296e-08
3.47257e-08
3.48198e-08
3.49193e-08
3.50143e-08
3.511e-08
3.52053e-08
3.53033e-08
3.53986e-08
3.55004e-08
3.55934e-08
3.56889e-08
3.57888e-08
3.58861e-08
3.59823e-08
3.60793e-08
3.61793e-08
3.62741e-08
3.63741e-08
3.64697e-08
3.65716e-08
3.66653e-08
3.67662e-08
3.68616e-08
3.69638e-08
3.70625e-08
3.71573e-08
3.72562e-08
3.73587e-08
3.74553e-08
3.75542e-08
3.76526e-08
3.77541e-08
3.78518e-08
3.79501e-08
3.80527e-08
3.81513e-08
3.82503e-08
3.83495e-08
3.84478e-08
3.85506e-08
3.86484e-08
3.8751e-08
3.88525e-08
3.89486e-08
3.90507e-08
3.91517e-08
3.92531e-08
3.93526e-08
3.94539e-08
3.95552e-08
3.96565e-08
3.97551e-08
3.98594e-08
3.99579e-08
4.00587e-08
4.01624e-08
4.02642e-08
4.03654e-08
4.04667e-08
4.05697e-08
4.06701e-08
4.07716e-08
4.08731e-08
4.09775e-08
4.10808e-08
4.11821e-08
4.12819e-08
4.13853e-08
4.14893e-08
4.15914e-08
4.16948e-08
4.17969e-08
4.1897e-08
4.20063e-08
4.21056e-08
4.22087e-08
4.23126e-08
4.24129e-08
4.25223e-08
4.26202e-08
4.27271e-08
4.28299e-08
4.29311e-08
4.30384e-08
4.31393e-08
4.32457e-08
4.33477e-08
4.34548e-08
4.35561e-08
4.36616e-08
4.37658e-08
4.38666e-08
4.39772e-08
4.40774e-08
4.41853e-08
4.42883e-08
4.43883e-08
4.44984e-08
4.46026e-08
4.47058e-08
4.48149e-08
4.4915e-08
4.50225e-08
4.51295e-08
4.52282e-08
4.53396e-08
4.54413e-08
4.55513e-08
4.5653e-08
4.57593e-08
4.58652e-08
4.59727e-08
4.60763e-08
4.61815e-08
4.62853e-08
4.63952e-08
4.64996e-08
4.66044e-08
4.67131e-08
4.68165e-08
4.69249e-08
4.70301e-08
4.71355e-08
4.72419e-08
4.73494e-08
4.74541e-08
4.75627e-08
4.76698e-08
4.77735e-08
4.7882e-08
4.79866e-08
4.80949e-08
4.81988e-08
4.83106e-08
4.84126e-08
4.85186e-08
4.86315e-08
4.87327e-08
4.88401e-08
4.89506e-08
4.90541e-08
4.91633e-08
4.92708e-08
4.93749e-08
4.94836e-08
4.95903e-08
4.96987e-08
4.98074e-08
4.99099e-08
5.00216e-08
5.01231e-08
5.02344e-08
5.03407e-08
5.04463e-08
5.05564e-08
5.06635e-08
5.07683e-08
5.08778e-08
5.0985e-08
5.10933e-08
5.12008e-08
5.13072e-08
5.14115e-08
5.1523e-08
5.16305e-08
5.17359e-08
5.18419e-08
5.19548e-08
5.20573e-08
5.2164e-08
5.22714e-08
5.23839e-08
5.24882e-08
5.25957e-08
5.27052e-08
5.28064e-08
5.29198e-08
5.30235e-08
5.31336e-08
5.32387e-08
5.33467e-08
5.34522e-08
5.35624e-08
5.36715e-08
5.37716e-08
5.38857e-08
5.3989e-08
5.40955e-08
5.42056e-08
5.43112e-08
5.44172e-08
5.45252e-08
5.46331e-08
5.47419e-08
5.48434e-08
5.49531e-08
5.50591e-08
5.51667e-08
5.52734e-08
5.5379e-08
5.54865e-08
5.55922e-08
5.56988e-08
5.58054e-08
5.59144e-08
5.60175e-08
5.61253e-08
5.62284e-08
5.63373e-08
5.64437e-08
5.65485e-08
5.66534e-08
5.67613e-08
5.68663e-08
5.69709e-08
5.70805e-08
5.71814e-08
5.72893e-08
5.73935e-08
5.74988e-08
5.76028e-08
5.77091e-08
5.78174e-08
5.79182e-08
5.80208e-08
5.81274e-08
5.82353e-08
5.83364e-08
5.84424e-08
5.85444e-08
5.8648e-08
5.87558e-08
5.88575e-08
5.89606e-08
5.90649e-08
5.91679e-08
5.92726e-08
5.93726e-08
5.94812e-08
5.95774e-08
5.96861e-08
5.97843e-08
5.98894e-08
5.99893e-08
6.00932e-08
6.01986e-08
6.02948e-08
6.0396e-08
6.04998e-08
6.06013e-08
6.07024e-08
6.08027e-08
6.09048e-08
6.1004e-08
6.11071e-08
6.12032e-08
6.13054e-08
6.14053e-08
6.15066e-08
6.16024e-08
6.17033e-08
6.18022e-08
6.19016e-08
6.19968e-08
6.21002e-08
6.21968e-08
6.22937e-08
6.23925e-08
6.24877e-08
6.25875e-08
6.2681e-08
6.27832e-08
6.28737e-08
6.29713e-08
6.30711e-08
6.31641e-08
6.32586e-08
6.33539e-08
6.34504e-08
6.35409e-08
6.36391e-08
6.37342e-08
6.38252e-08
6.39182e-08
6.40137e-08
6.4105e-08
6.41983e-08
6.42858e-08
6.43828e-08
6.44741e-08
6.45642e-08
6.4654e-08
6.47463e-08
6.48378e-08
6.49217e-08
6.50147e-08
6.51044e-08
6.51907e-08
6.52796e-08
6.53723e-08
6.54547e-08
6.55448e-08
6.56307e-08
6.57147e-08
6.58019e-08
6.58885e-08
6.59755e-08
6.60545e-08
6.61422e-08
6.62278e-08
6.63073e-08
6.63941e-08
6.6474e-08
6.65571e-08
6.6637e-08
6.67203e-08
6.6801e-08
6.6881e-08
6.6959e-08
6.70388e-08
6.71202e-08
6.71966e-08
6.72717e-08
6.73536e-08
6.7427e-08
6.75031e-08
6.75794e-08
6.76539e-08
6.77295e-08
6.78029e-08
6.78763e-08
6.79484e-08
6.80179e-08
6.80943e-08
6.81642e-08
6.82326e-08
6.83033e-08
6.83731e-08
6.84394e-08
6.85074e-08
6.85768e-08
6.86419e-08
6.87085e-08
6.87724e-08
6.88375e-08
6.89018e-08
6.89652e-08
6.90275e-08
6.9089e-08
6.91491e-08
6.92091e-08
6.92701e-08
6.93269e-08
6.93872e-08
6.94416e-08
6.94994e-08
6.95552e-08
6.96111e-08
6.96648e-08
6.97171e-08
6.977e-08
6.9818e-08
6.98744e-08
6.99212e-08
6.99694e-08
7.00196e-08
7.00665e-08
7.01113e-08
7.01593e-08
7.02007e-08
7.02445e-08
7.02901e-08
7.03283e-08
7.03695e-08
7.041e-08
7.04501e-08
7.04852e-08
7.05229e-08
7.05585e-08
7.05952e-08
7.0627e-08
7.06592e-08
7.06901e-08
7.07206e-08
7.07513e-08
7.07785e-08
7.08046e-08
7.08323e-08
7.08585e-08
7.08794e-08
7.0902e-08
7.09229e-08
7.0945e-08
7.09631e-08
7.09804e-08
7.09965e-08
7.10118e-08
7.10247e-08
7.10375e-08
7.10499e-08
7.10609e-08
7.1067e-08
7.10741e-08
7.10826e-08
7.1085e-08
7.10895e-08
7.10908e-08
7.10901e-08
7.10889e-08
7.10898e-08
7.1083e-08
7.10779e-08
7.10702e-08
7.10642e-08
7.10513e-08
7.10429e-08
7.10264e-08
7.10131e-08
7.09968e-08
7.09782e-08
7.09621e-08
7.09369e-08
7.09171e-08
7.08911e-08
7.08661e-08
7.08362e-08
7.08077e-08
7.07764e-08
7.07415e-08
7.07101e-08
7.067e-08
7.06351e-08
7.05917e-08
7.05485e-08
7.05087e-08
7.04592e-08
7.04116e-08
7.03644e-08
7.03092e-08
7.0258e-08
7.02009e-08
7.01403e-08
7.00855e-08
7.0021e-08
6.99569e-08
6.98917e-08
6.98232e-08
6.97533e-08
6.96773e-08
6.96071e-08
6.95264e-08
6.94519e-08
6.9367e-08
6.92841e-08
6.92012e-08
6.91085e-08
6.90191e-08
6.89279e-08
6.88316e-08
6.87351e-08
6.8631e-08
6.85331e-08
6.84274e-08
6.83181e-08
6.8208e-08
6.80971e-08
6.79813e-08
6.78636e-08
6.77452e-08
6.762e-08
6.74953e-08
6.73658e-08
6.7238e-08
6.71001e-08
6.69665e-08
6.68272e-08
6.66855e-08
6.654e-08
6.63941e-08
6.62429e-08
6.60892e-08
6.59322e-08
6.57754e-08
6.56121e-08
6.54468e-08
6.52806e-08
6.51075e-08
6.49338e-08
6.4758e-08
6.45755e-08
6.43935e-08
6.42061e-08
6.40173e-08
6.38235e-08
6.36288e-08
6.34282e-08
6.3225e-08
6.30226e-08
6.28091e-08
6.25992e-08
6.2383e-08
6.21622e-08
6.19413e-08
6.17145e-08
6.1485e-08
6.12508e-08
6.10144e-08
6.0776e-08
6.05315e-08
6.0284e-08
6.00333e-08
5.97776e-08
5.95216e-08
5.92593e-08
5.89929e-08
5.87244e-08
5.84518e-08
5.81752e-08
5.78937e-08
5.76094e-08
5.73234e-08
5.70307e-08
5.67339e-08
5.64343e-08
5.61329e-08
5.58239e-08
5.55121e-08
5.51983e-08
5.48788e-08
5.4554e-08
5.42285e-08
5.38963e-08
5.35609e-08
5.32216e-08
5.28802e-08
5.25292e-08
5.21799e-08
5.18238e-08
5.14615e-08
5.11004e-08
5.07294e-08
5.03574e-08
4.99827e-08
4.95992e-08
4.92139e-08
4.88277e-08
4.84315e-08
4.80359e-08
4.76306e-08
4.72267e-08
4.68138e-08
4.64e-08
4.59801e-08
4.55569e-08
4.51292e-08
4.46957e-08
4.42588e-08
4.38195e-08
4.33729e-08
4.29211e-08
4.24706e-08
4.20108e-08
4.15474e-08
4.10818e-08
4.06073e-08
4.01349e-08
3.9652e-08
3.91684e-08
3.86783e-08
3.81878e-08
3.76863e-08
3.71879e-08
3.66795e-08
3.61687e-08
3.56544e-08
3.5135e-08
3.46117e-08
3.40838e-08
3.3551e-08
3.30167e-08
3.2474e-08
3.1929e-08
3.13785e-08
3.08285e-08
3.02676e-08
2.97077e-08
2.9141e-08
2.85737e-08
2.79962e-08
2.74203e-08
2.68357e-08
2.62506e-08
2.56619e-08
2.50655e-08
2.44675e-08
2.38647e-08
2.32611e-08
2.26485e-08
2.20346e-08
2.14184e-08
2.07971e-08
2.01699e-08
1.95418e-08
1.89103e-08
1.82719e-08
1.76347e-08
1.69908e-08
1.63423e-08
1.56913e-08
1.50397e-08
1.43804e-08
1.37205e-08
1.30586e-08
1.23883e-08
1.17177e-08
1.10456e-08
1.03698e-08
9.68929e-09
9.00555e-09
8.31996e-09
7.63057e-09
6.93967e-09
6.24685e-09
5.5488e-09
4.84746e-09
4.14649e-09
3.44004e-09
2.73513e-09
2.02337e-09
1.31126e-09
5.97376e-10
-1.21742e-10
-8.39757e-10
-1.56152e-09
-2.28507e-09
-3.00918e-09
-3.73907e-09
-4.46758e-09
-5.19644e-09
-5.93227e-09
-6.66687e-09
-7.40274e-09
-8.13957e-09
-8.87802e-09
-9.62064e-09
-1.0363e-08
-1.11045e-08
-1.18504e-08
-1.25942e-08
-1.3344e-08
-1.40903e-08
-1.48386e-08
-1.55883e-08
-1.63387e-08
-1.70887e-08
-1.78412e-08
-1.85921e-08
-1.93468e-08
-2.0097e-08
-2.08523e-08
-2.16046e-08
-2.23583e-08
-2.31133e-08
-2.38662e-08
-2.46217e-08
-2.53725e-08
-2.61272e-08
-2.68805e-08
-2.76326e-08
-2.83867e-08
-2.9137e-08
-2.9889e-08
-3.06396e-08
)
;

boundaryField
{
    bottom
    {
        type            fixedValue;
        value           uniform 0;
    }
    top
    {
        type            calculated;
        value           uniform -3.13895e-08;
    }
    walls
    {
        type            fixedValue;
        value           uniform 0;
    }
}


// ************************************************************************* //
