/*--------------------------------*- C++ -*----------------------------------*\
| =========                 |                                                 |
| \\      /  F ield         | foam-extend: Open Source CFD                    |
|  \\    /   O peration     | Version:     5.0                                |
|   \\  /    A nd           | Web:         http://www.foam-extend.org         |
|    \\/     M anipulation  |                                                 |
\*---------------------------------------------------------------------------*/
FoamFile
{
    version     2.0;
    format      ascii;
    class       volScalarField;
    location    "15000";
    object      S.gas;
}
// * * * * * * * * * * * * * * * * * * * * * * * * * * * * * * * * * * * * * //

dimensions      [0 0 0 0 0 0 0];

internalField   nonuniform List<scalar> 
1500
(
2.8404e-06
3.23349e-06
3.63329e-06
4.07557e-06
4.68746e-06
5.77409e-06
6.82554e-06
7.76855e-06
8.6646e-06
9.53597e-06
1.03929e-05
1.12409e-05
1.20827e-05
1.29203e-05
1.37547e-05
1.45866e-05
1.54165e-05
1.62449e-05
1.70719e-05
1.78977e-05
1.87225e-05
1.95464e-05
2.03696e-05
2.1192e-05
2.20138e-05
2.2835e-05
2.36556e-05
2.44757e-05
2.52954e-05
2.61146e-05
2.69334e-05
2.77519e-05
2.85699e-05
2.93877e-05
3.02051e-05
3.10222e-05
3.18391e-05
3.26556e-05
3.34719e-05
3.4288e-05
3.51039e-05
3.59195e-05
3.67349e-05
3.75501e-05
3.83651e-05
3.91799e-05
3.99946e-05
4.08091e-05
4.16234e-05
4.24376e-05
4.32516e-05
4.40655e-05
4.48792e-05
4.56928e-05
4.65063e-05
4.73196e-05
4.81328e-05
4.89459e-05
4.97589e-05
5.05718e-05
5.13846e-05
5.21973e-05
5.30099e-05
5.38224e-05
5.46348e-05
5.54471e-05
5.62593e-05
5.70714e-05
5.78835e-05
5.86954e-05
5.95073e-05
6.03192e-05
6.11309e-05
6.19426e-05
6.27542e-05
6.35657e-05
6.43772e-05
6.51886e-05
6.59999e-05
6.68112e-05
6.76224e-05
6.84336e-05
6.92447e-05
7.00558e-05
7.08667e-05
7.16777e-05
7.24886e-05
7.32994e-05
7.41102e-05
7.49209e-05
7.57316e-05
7.65423e-05
7.73529e-05
7.81635e-05
7.8974e-05
7.97844e-05
8.05949e-05
8.14053e-05
8.22156e-05
8.30259e-05
8.38362e-05
8.46464e-05
8.54566e-05
8.62668e-05
8.70769e-05
8.7887e-05
8.8697e-05
8.95071e-05
9.0317e-05
9.1127e-05
9.19369e-05
9.27468e-05
9.35567e-05
9.43665e-05
9.51763e-05
9.59861e-05
9.67958e-05
9.76055e-05
9.84152e-05
9.92249e-05
0.000100035
0.000100844
0.000101654
0.000102463
0.000103273
0.000104082
0.000104892
0.000105701
0.000106511
0.00010732
0.000108129
0.000108939
0.000109748
0.000110557
0.000111367
0.000112176
0.000112985
0.000113795
0.000114604
0.000115413
0.000116222
0.000117031
0.00011784
0.00011865
0.000119459
0.000120268
0.000121077
0.000121886
0.000122695
0.000123504
0.000124313
0.000125122
0.000125931
0.00012674
0.000127549
0.000128358
0.000129166
0.000129975
0.000130784
0.000131593
0.000132402
0.000133211
0.000134019
0.000134828
0.000135637
0.000136446
0.000137254
0.000138063
0.000138872
0.000139681
0.000140489
0.000141298
0.000142107
0.000142915
0.000143724
0.000144533
0.000145341
0.00014615
0.000146958
0.000147767
0.000148575
0.000149384
0.000150193
0.000151001
0.00015181
0.000152618
0.000153427
0.000154235
0.000155044
0.000155852
0.00015666
0.000157469
0.000158277
0.000159086
0.000159894
0.000160703
0.000161511
0.000162319
0.000163128
0.000163936
0.000164744
0.000165553
0.000166361
0.000167169
0.000167978
0.000168786
0.000169594
0.000170402
0.000171211
0.000172019
0.000172827
0.000173636
0.000174444
0.000175252
0.00017606
0.000176868
0.000177677
0.000178485
0.000179293
0.000180101
0.000180909
0.000181718
0.000182526
0.000183334
0.000184142
0.00018495
0.000185758
0.000186566
0.000187374
0.000188183
0.000188991
0.000189799
0.000190607
0.000191415
0.000192223
0.000193031
0.000193839
0.000194647
0.000195455
0.000196263
0.000197071
0.000197892
0.000200402
0.00043432
0.0111027
0.023999
0.0366419
0.0490391
0.0611971
0.0731223
0.0848206
0.096298
0.10756
0.118612
0.129458
0.140106
0.150558
0.16082
0.170896
0.180792
0.19051
0.200057
0.209434
0.218647
0.2277
0.236595
0.245337
0.25393
0.262376
0.270679
0.278842
0.286868
0.29476
0.302522
0.310156
0.317665
0.325052
0.332319
0.339469
0.346504
0.353428
0.360241
0.366947
0.373548
0.380046
0.386443
0.392741
0.398943
0.40505
0.411064
0.416987
0.42282
0.428567
0.434228
0.439805
0.4453
0.450714
0.456049
0.461306
0.466488
0.471595
0.476629
0.481591
0.486483
0.491305
0.49606
0.500749
0.505372
0.509931
0.514427
0.518862
0.523236
0.527551
0.531807
0.536006
0.540148
0.544235
0.548268
0.552248
0.556175
0.560051
0.563876
0.567651
0.571377
0.575056
0.578687
0.582272
0.585811
0.589305
0.592755
0.596162
0.599527
0.602849
0.606131
0.609371
0.612572
0.615734
0.618857
0.621942
0.62499
0.628001
0.630976
0.633916
0.63682
0.63969
0.642526
0.645329
0.648099
0.650837
0.653543
0.656217
0.658861
0.661474
0.664058
0.666612
0.669137
0.671633
0.674102
0.676542
0.678956
0.681342
0.683702
0.686036
0.688344
0.690627
0.692885
0.695118
0.697327
0.699512
0.701674
0.703812
0.705928
0.708021
0.710091
0.71214
0.714168
0.716174
0.718159
0.720123
0.722067
0.72399
0.725894
0.727778
0.729643
0.731489
0.733317
0.735125
0.736915
0.738688
0.740442
0.742179
0.743899
0.745601
0.747287
0.748956
0.750609
0.752245
0.753865
0.75547
0.757059
0.758633
0.760191
0.761735
0.763264
0.764778
0.766277
0.767763
0.769234
0.770692
0.772136
0.773566
0.774983
0.776387
0.777778
0.779156
0.780521
0.781873
0.783214
0.784542
0.785858
0.787162
0.788454
0.789734
0.791003
0.792261
0.793507
0.794743
0.795967
0.79718
0.798383
0.799575
0.800757
0.801928
0.803089
0.80424
0.805382
0.806513
0.807634
0.808746
0.809848
0.810941
0.812025
0.813099
0.814164
0.81522
0.816268
0.817306
0.818336
0.819357
0.82037
0.821374
0.82237
0.823358
0.824338
0.825309
0.826273
0.827229
0.828177
0.829117
0.83005
0.830975
0.831893
0.832803
0.833706
0.834602
0.835491
0.836373
0.837247
0.838115
0.838976
0.83983
0.840678
0.841519
0.842353
0.843181
0.844002
0.844817
0.845626
0.846429
0.847225
0.848016
0.8488
0.849578
0.850351
0.851117
0.851878
0.852633
0.853383
0.854127
0.854865
0.855598
0.856325
0.857047
0.857764
0.858475
0.859181
0.859882
0.860578
0.861268
0.861954
0.862635
0.863311
0.863982
0.864648
0.865309
0.865966
0.866617
0.867265
0.867907
0.868545
0.869179
0.869808
0.870432
0.871053
0.871669
0.87228
0.872888
0.873491
0.87409
0.874684
0.875275
0.875862
0.876444
0.877023
0.877597
0.878168
0.878735
0.879298
0.879857
0.880412
0.880964
0.881512
0.882056
0.882597
0.883133
0.883667
0.884197
0.884723
0.885246
0.885765
0.886281
0.886794
0.887303
0.887809
0.888312
0.888811
0.889307
0.8898
0.89029
0.890776
0.89126
0.89174
0.892217
0.892691
0.893162
0.893631
0.894096
0.894558
0.895017
0.895474
0.895927
0.896378
0.896826
0.897271
0.897713
0.898153
0.89859
0.899024
0.899455
0.899884
0.90031
0.900734
0.901155
0.901573
0.901989
0.902402
0.902813
0.903221
0.903627
0.904031
0.904432
0.90483
0.905226
0.90562
0.906012
0.906401
0.906788
0.907172
0.907554
0.907934
0.908312
0.908688
0.909061
0.909432
0.909801
0.910168
0.910533
0.910895
0.911256
0.911614
0.911971
0.912325
0.912677
0.913028
0.913376
0.913722
0.914066
0.914409
0.914749
0.915088
0.915424
0.915759
0.916092
0.916423
0.916752
0.917079
0.917404
0.917728
0.91805
0.91837
0.918688
0.919005
0.919319
0.919632
0.919944
0.920253
0.920561
0.920868
0.921172
0.921475
0.921777
0.922076
0.922374
0.922671
0.922966
0.923259
0.923551
0.923841
0.924129
0.924416
0.924702
0.924986
0.925269
0.92555
0.925829
0.926107
0.926384
0.926659
0.926933
0.927205
0.927476
0.927746
0.928014
0.928281
0.928546
0.92881
0.929073
0.929334
0.929594
0.929853
0.93011
0.930366
0.930621
0.930874
0.931126
0.931377
0.931627
0.931875
0.932122
0.932368
0.932613
0.932856
0.933098
0.933339
0.933579
0.933818
0.934055
0.934292
0.934527
0.934761
0.934993
0.935225
0.935456
0.935685
0.935913
0.936141
0.936367
0.936592
0.936816
0.937038
0.93726
0.937481
0.937701
0.937919
0.938137
0.938353
0.938569
0.938783
0.938997
0.939209
0.93942
0.939631
0.93984
0.940049
0.940256
0.940463
0.940668
0.940873
0.941077
0.941279
0.941481
0.941682
0.941882
0.942081
0.942279
0.942476
0.942672
0.942868
0.943062
0.943256
0.943448
0.94364
0.943831
0.944021
0.944211
0.944399
0.944587
0.944773
0.944959
0.945144
0.945328
0.945512
0.945694
0.945876
0.946057
0.946237
0.946417
0.946595
0.946773
0.94695
0.947126
0.947302
0.947476
0.94765
0.947824
0.947996
0.948168
0.948339
0.948509
0.948678
0.948847
0.949015
0.949182
0.949349
0.949515
0.94968
0.949844
0.950008
0.950171
0.950334
0.950495
0.950656
0.950817
0.950976
0.951135
0.951294
0.951451
0.951608
0.951765
0.95192
0.952076
0.95223
0.952384
0.952537
0.952689
0.952841
0.952993
0.953143
0.953293
0.953443
0.953592
0.95374
0.953887
0.954034
0.954181
0.954327
0.954472
0.954616
0.954761
0.954904
0.955047
0.955189
0.955331
0.955472
0.955613
0.955753
0.955893
0.956032
0.95617
0.956308
0.956445
0.956582
0.956718
0.956854
0.956989
0.957124
0.957258
0.957392
0.957525
0.957657
0.95779
0.957921
0.958052
0.958183
0.958313
0.958442
0.958572
0.9587
0.958828
0.958956
0.959083
0.95921
0.959336
0.959461
0.959587
0.959711
0.959836
0.959959
0.960083
0.960206
0.960328
0.96045
0.960572
0.960693
0.960813
0.960933
0.961053
0.961172
0.961291
0.96141
0.961528
0.961645
0.961762
0.961879
0.961995
0.962111
0.962226
0.962341
0.962456
0.96257
0.962684
0.962797
0.96291
0.963023
0.963135
0.963247
0.963358
0.963469
0.963579
0.96369
0.963799
0.963909
0.964018
0.964126
0.964234
0.964342
0.96445
0.964557
0.964663
0.96477
0.964876
0.964981
0.965087
0.965191
0.965296
0.9654
0.965504
0.965607
0.96571
0.965813
0.965915
0.966017
0.966119
0.96622
0.966321
0.966422
0.966522
0.966622
0.966722
0.966821
0.96692
0.967018
0.967117
0.967215
0.967312
0.967409
0.967506
0.967603
0.967699
0.967795
0.967891
0.967986
0.968081
0.968176
0.96827
0.968364
0.968458
0.968552
0.968645
0.968738
0.96883
0.968923
0.969015
0.969106
0.969198
0.969289
0.969379
0.96947
0.96956
0.96965
0.96974
0.969829
0.969918
0.970007
0.970095
0.970183
0.970271
0.970359
0.970446
0.970533
0.97062
0.970706
0.970793
0.970879
0.970964
0.97105
0.971135
0.97122
0.971304
0.971389
0.971473
0.971557
0.97164
0.971724
0.971807
0.97189
0.971972
0.972054
0.972136
0.972218
0.9723
0.972381
0.972462
0.972543
0.972623
0.972704
0.972784
0.972864
0.972943
0.973022
0.973102
0.97318
0.973259
0.973337
0.973416
0.973493
0.973571
0.973649
0.973726
0.973803
0.973879
0.973956
0.974032
0.974108
0.974184
0.97426
0.974335
0.97441
0.974485
0.97456
0.974634
0.974709
0.974783
0.974857
0.97493
0.975004
0.975077
0.97515
0.975223
0.975295
0.975368
0.97544
0.975512
0.975583
0.975655
0.975726
0.975797
0.975868
0.975939
0.976009
0.97608
0.97615
0.97622
0.976289
0.976359
0.976428
0.976497
0.976566
0.976635
0.976704
0.976772
0.97684
0.976908
0.976976
0.977043
0.977111
0.977178
0.977245
0.977312
0.977378
0.977445
0.977511
0.977577
0.977643
0.977708
0.977774
0.977839
0.977904
0.977969
0.978034
0.978099
0.978163
0.978228
0.978292
0.978356
0.978419
0.978483
0.978546
0.978609
0.978672
0.978735
0.978798
0.97886
0.978923
0.978985
0.979047
0.979109
0.979171
0.979232
0.979293
0.979355
0.979416
0.979476
0.979537
0.979598
0.979658
0.979718
0.979778
0.979838
0.979898
0.979957
0.980017
0.980076
0.980135
0.980194
0.980253
0.980311
0.98037
0.980428
0.980486
0.980544
0.980602
0.98066
0.980717
0.980774
0.980832
0.980889
0.980946
0.981002
0.981059
0.981115
0.981172
0.981228
0.981284
0.98134
0.981396
0.981451
0.981507
0.981562
0.981617
0.981672
0.981727
0.981781
0.981836
0.98189
0.981945
0.981999
0.982053
0.982107
0.98216
0.982214
0.982267
0.982321
0.982374
0.982427
0.98248
0.982532
0.982585
0.982638
0.98269
0.982742
0.982794
0.982846
0.982898
0.982949
0.983001
0.983052
0.983104
0.983155
0.983206
0.983257
0.983307
0.983358
0.983408
0.983459
0.983509
0.983559
0.983609
0.983659
0.983708
0.983758
0.983807
0.983857
0.983906
0.983955
0.984004
0.984052
0.984101
0.98415
0.984198
0.984246
0.984294
0.984342
0.98439
0.984438
0.984486
0.984533
0.984581
0.984628
0.984675
0.984722
0.984769
0.984816
0.984862
0.984909
0.984955
0.985002
0.985048
0.985094
0.98514
0.985186
0.985231
0.985277
0.985322
0.985368
0.985413
0.985458
0.985503
0.985548
0.985592
0.985637
0.985682
0.985726
0.98577
0.985814
0.985858
0.985902
0.985946
0.98599
0.986033
0.986077
0.98612
0.986163
0.986206
0.986249
0.986292
0.986335
0.986378
0.98642
0.986462
0.986505
0.986547
0.986589
0.986631
0.986673
0.986714
0.986756
0.986797
0.986839
0.98688
0.986921
0.986962
0.987003
0.987044
0.987085
0.987125
0.987166
0.987206
0.987246
0.987286
0.987326
0.987366
0.987406
0.987445
0.987485
0.987524
0.987564
0.987603
0.987642
0.987681
0.98772
0.987759
0.987797
0.987836
0.987874
0.987913
0.987951
0.987989
0.988027
0.988065
0.988102
0.98814
0.988178
0.988215
0.988252
0.988289
0.988327
0.988363
0.9884
0.988437
0.988474
0.98851
0.988547
0.988583
0.988619
0.988655
0.988691
0.988727
0.988763
0.988798
0.988834
0.988869
0.988904
0.98894
0.988975
0.98901
0.989044
0.989079
0.989114
0.989148
0.989182
0.989217
0.989251
0.989285
0.989319
0.989353
0.989386
0.98942
0.989453
0.989487
0.98952
0.989553
0.989586
0.989619
0.989652
0.989684
0.989717
0.989749
0.989782
0.989814
0.989846
0.989878
0.98991
0.989941
0.989973
0.990004
0.990036
0.990067
0.990098
0.990129
0.99016
0.990191
0.990222
0.990252
0.990283
0.990313
0.990343
0.990373
0.990403
0.990433
0.990463
0.990492
0.990522
0.990551
0.990581
0.99061
0.990639
0.990668
0.990696
0.990725
0.990753
0.990782
0.99081
0.990838
0.990866
0.990894
0.990922
0.99095
0.990977
0.991005
0.991032
0.991059
0.991086
0.991113
0.99114
0.991166
0.991193
0.991219
0.991246
0.991272
0.991298
0.991324
0.99135
0.991375
0.991401
0.991426
0.991451
0.991476
0.991501
0.991526
0.991551
0.991576
0.9916
0.991624
0.991649
0.991673
0.991697
0.99172
0.991744
0.991768
0.991791
0.991814
0.991838
0.991861
0.991883
0.991906
0.991929
0.991951
0.991974
0.991996
0.992018
0.99204
0.992061
0.992083
0.992105
0.992126
0.992147
0.992168
0.992189
0.99221
0.992231
0.992251
0.992272
0.992292
0.992312
0.992332
0.992352
0.992371
0.992391
0.99241
0.992429
0.992448
0.992467
0.992486
0.992505
0.992523
0.992542
0.99256
0.992578
0.992596
0.992614
0.992631
0.992649
0.992666
0.992683
0.9927
0.992717
0.992734
0.99275
0.992767
0.992783
0.992799
0.992815
0.992831
0.992846
0.992862
0.992877
0.992892
0.992907
0.992922
0.992937
0.992951
0.992966
0.99298
0.992994
0.993008
0.993022
0.993035
0.993049
0.993062
0.993075
0.993088
0.993101
0.993113
0.993126
0.993138
0.99315
0.993162
0.993174
0.993186
0.993197
0.993209
0.99322
0.993231
0.993242
0.993253
0.993263
0.993274
0.993284
0.993294
0.993304
0.993313
0.993323
0.993332
0.993342
0.993351
0.993359
0.993368
0.993377
0.993385
0.993393
0.993401
0.993409
0.993417
0.993425
0.993432
0.993439
0.993446
0.993453
0.99346
0.993467
0.993473
0.993479
0.993485
0.993491
0.993497
0.993503
0.993508
0.993513
0.993518
0.993523
0.993528
0.993533
0.993537
0.993541
0.993545
0.993549
0.993553
0.993557
0.99356
0.993563
0.993566
0.993569
0.993572
0.993575
0.993577
0.993579
0.993581
0.993583
0.993585
0.993587
0.993588
0.99359
0.993591
0.993592
0.993592
0.993593
0.993594
0.993594
0.993594
)
;

boundaryField
{
    bottom
    {
        type            calculated;
        value           uniform 0.5;
    }
    top
    {
        type            calculated;
        value           uniform 0.993594;
    }
    walls
    {
        type            calculated;
        value           nonuniform List<scalar> 
6000
(
2.8404e-06
3.23349e-06
3.63329e-06
4.07557e-06
4.68746e-06
5.77409e-06
6.82554e-06
7.76855e-06
8.6646e-06
9.53597e-06
1.03929e-05
1.12409e-05
1.20827e-05
1.29203e-05
1.37547e-05
1.45866e-05
1.54165e-05
1.62449e-05
1.70719e-05
1.78977e-05
1.87225e-05
1.95464e-05
2.03696e-05
2.1192e-05
2.20138e-05
2.2835e-05
2.36556e-05
2.44757e-05
2.52954e-05
2.61146e-05
2.69334e-05
2.77519e-05
2.85699e-05
2.93877e-05
3.02051e-05
3.10222e-05
3.18391e-05
3.26556e-05
3.34719e-05
3.4288e-05
3.51039e-05
3.59195e-05
3.67349e-05
3.75501e-05
3.83651e-05
3.91799e-05
3.99946e-05
4.08091e-05
4.16234e-05
4.24376e-05
4.32516e-05
4.40655e-05
4.48792e-05
4.56928e-05
4.65063e-05
4.73196e-05
4.81328e-05
4.89459e-05
4.97589e-05
5.05718e-05
5.13846e-05
5.21973e-05
5.30099e-05
5.38224e-05
5.46348e-05
5.54471e-05
5.62593e-05
5.70714e-05
5.78835e-05
5.86954e-05
5.95073e-05
6.03192e-05
6.11309e-05
6.19426e-05
6.27542e-05
6.35657e-05
6.43772e-05
6.51886e-05
6.59999e-05
6.68112e-05
6.76224e-05
6.84336e-05
6.92447e-05
7.00558e-05
7.08667e-05
7.16777e-05
7.24886e-05
7.32994e-05
7.41102e-05
7.49209e-05
7.57316e-05
7.65423e-05
7.73529e-05
7.81635e-05
7.8974e-05
7.97844e-05
8.05949e-05
8.14053e-05
8.22156e-05
8.30259e-05
8.38362e-05
8.46464e-05
8.54566e-05
8.62668e-05
8.70769e-05
8.7887e-05
8.8697e-05
8.95071e-05
9.0317e-05
9.1127e-05
9.19369e-05
9.27468e-05
9.35567e-05
9.43665e-05
9.51763e-05
9.59861e-05
9.67958e-05
9.76055e-05
9.84152e-05
9.92249e-05
0.000100035
0.000100844
0.000101654
0.000102463
0.000103273
0.000104082
0.000104892
0.000105701
0.000106511
0.00010732
0.000108129
0.000108939
0.000109748
0.000110557
0.000111367
0.000112176
0.000112985
0.000113795
0.000114604
0.000115413
0.000116222
0.000117031
0.00011784
0.00011865
0.000119459
0.000120268
0.000121077
0.000121886
0.000122695
0.000123504
0.000124313
0.000125122
0.000125931
0.00012674
0.000127549
0.000128358
0.000129166
0.000129975
0.000130784
0.000131593
0.000132402
0.000133211
0.000134019
0.000134828
0.000135637
0.000136446
0.000137254
0.000138063
0.000138872
0.000139681
0.000140489
0.000141298
0.000142107
0.000142915
0.000143724
0.000144533
0.000145341
0.00014615
0.000146958
0.000147767
0.000148575
0.000149384
0.000150193
0.000151001
0.00015181
0.000152618
0.000153427
0.000154235
0.000155044
0.000155852
0.00015666
0.000157469
0.000158277
0.000159086
0.000159894
0.000160703
0.000161511
0.000162319
0.000163128
0.000163936
0.000164744
0.000165553
0.000166361
0.000167169
0.000167978
0.000168786
0.000169594
0.000170402
0.000171211
0.000172019
0.000172827
0.000173636
0.000174444
0.000175252
0.00017606
0.000176868
0.000177677
0.000178485
0.000179293
0.000180101
0.000180909
0.000181718
0.000182526
0.000183334
0.000184142
0.00018495
0.000185758
0.000186566
0.000187374
0.000188183
0.000188991
0.000189799
0.000190607
0.000191415
0.000192223
0.000193031
0.000193839
0.000194647
0.000195455
0.000196263
0.000197071
0.000197892
0.000200402
0.00043432
0.0111027
0.023999
0.0366419
0.0490391
0.0611971
0.0731223
0.0848206
0.096298
0.10756
0.118612
0.129458
0.140106
0.150558
0.16082
0.170896
0.180792
0.19051
0.200057
0.209434
0.218647
0.2277
0.236595
0.245337
0.25393
0.262376
0.270679
0.278842
0.286868
0.29476
0.302522
0.310156
0.317665
0.325052
0.332319
0.339469
0.346504
0.353428
0.360241
0.366947
0.373548
0.380046
0.386443
0.392741
0.398943
0.40505
0.411064
0.416987
0.42282
0.428567
0.434228
0.439805
0.4453
0.450714
0.456049
0.461306
0.466488
0.471595
0.476629
0.481591
0.486483
0.491305
0.49606
0.500749
0.505372
0.509931
0.514427
0.518862
0.523236
0.527551
0.531807
0.536006
0.540148
0.544235
0.548268
0.552248
0.556175
0.560051
0.563876
0.567651
0.571377
0.575056
0.578687
0.582272
0.585811
0.589305
0.592755
0.596162
0.599527
0.602849
0.606131
0.609371
0.612572
0.615734
0.618857
0.621942
0.62499
0.628001
0.630976
0.633916
0.63682
0.63969
0.642526
0.645329
0.648099
0.650837
0.653543
0.656217
0.658861
0.661474
0.664058
0.666612
0.669137
0.671633
0.674102
0.676542
0.678956
0.681342
0.683702
0.686036
0.688344
0.690627
0.692885
0.695118
0.697327
0.699512
0.701674
0.703812
0.705928
0.708021
0.710091
0.71214
0.714168
0.716174
0.718159
0.720123
0.722067
0.72399
0.725894
0.727778
0.729643
0.731489
0.733317
0.735125
0.736915
0.738688
0.740442
0.742179
0.743899
0.745601
0.747287
0.748956
0.750609
0.752245
0.753865
0.75547
0.757059
0.758633
0.760191
0.761735
0.763264
0.764778
0.766277
0.767763
0.769234
0.770692
0.772136
0.773566
0.774983
0.776387
0.777778
0.779156
0.780521
0.781873
0.783214
0.784542
0.785858
0.787162
0.788454
0.789734
0.791003
0.792261
0.793507
0.794743
0.795967
0.79718
0.798383
0.799575
0.800757
0.801928
0.803089
0.80424
0.805382
0.806513
0.807634
0.808746
0.809848
0.810941
0.812025
0.813099
0.814164
0.81522
0.816268
0.817306
0.818336
0.819357
0.82037
0.821374
0.82237
0.823358
0.824338
0.825309
0.826273
0.827229
0.828177
0.829117
0.83005
0.830975
0.831893
0.832803
0.833706
0.834602
0.835491
0.836373
0.837247
0.838115
0.838976
0.83983
0.840678
0.841519
0.842353
0.843181
0.844002
0.844817
0.845626
0.846429
0.847225
0.848016
0.8488
0.849578
0.850351
0.851117
0.851878
0.852633
0.853383
0.854127
0.854865
0.855598
0.856325
0.857047
0.857764
0.858475
0.859181
0.859882
0.860578
0.861268
0.861954
0.862635
0.863311
0.863982
0.864648
0.865309
0.865966
0.866617
0.867265
0.867907
0.868545
0.869179
0.869808
0.870432
0.871053
0.871669
0.87228
0.872888
0.873491
0.87409
0.874684
0.875275
0.875862
0.876444
0.877023
0.877597
0.878168
0.878735
0.879298
0.879857
0.880412
0.880964
0.881512
0.882056
0.882597
0.883133
0.883667
0.884197
0.884723
0.885246
0.885765
0.886281
0.886794
0.887303
0.887809
0.888312
0.888811
0.889307
0.8898
0.89029
0.890776
0.89126
0.89174
0.892217
0.892691
0.893162
0.893631
0.894096
0.894558
0.895017
0.895474
0.895927
0.896378
0.896826
0.897271
0.897713
0.898153
0.89859
0.899024
0.899455
0.899884
0.90031
0.900734
0.901155
0.901573
0.901989
0.902402
0.902813
0.903221
0.903627
0.904031
0.904432
0.90483
0.905226
0.90562
0.906012
0.906401
0.906788
0.907172
0.907554
0.907934
0.908312
0.908688
0.909061
0.909432
0.909801
0.910168
0.910533
0.910895
0.911256
0.911614
0.911971
0.912325
0.912677
0.913028
0.913376
0.913722
0.914066
0.914409
0.914749
0.915088
0.915424
0.915759
0.916092
0.916423
0.916752
0.917079
0.917404
0.917728
0.91805
0.91837
0.918688
0.919005
0.919319
0.919632
0.919944
0.920253
0.920561
0.920868
0.921172
0.921475
0.921777
0.922076
0.922374
0.922671
0.922966
0.923259
0.923551
0.923841
0.924129
0.924416
0.924702
0.924986
0.925269
0.92555
0.925829
0.926107
0.926384
0.926659
0.926933
0.927205
0.927476
0.927746
0.928014
0.928281
0.928546
0.92881
0.929073
0.929334
0.929594
0.929853
0.93011
0.930366
0.930621
0.930874
0.931126
0.931377
0.931627
0.931875
0.932122
0.932368
0.932613
0.932856
0.933098
0.933339
0.933579
0.933818
0.934055
0.934292
0.934527
0.934761
0.934993
0.935225
0.935456
0.935685
0.935913
0.936141
0.936367
0.936592
0.936816
0.937038
0.93726
0.937481
0.937701
0.937919
0.938137
0.938353
0.938569
0.938783
0.938997
0.939209
0.93942
0.939631
0.93984
0.940049
0.940256
0.940463
0.940668
0.940873
0.941077
0.941279
0.941481
0.941682
0.941882
0.942081
0.942279
0.942476
0.942672
0.942868
0.943062
0.943256
0.943448
0.94364
0.943831
0.944021
0.944211
0.944399
0.944587
0.944773
0.944959
0.945144
0.945328
0.945512
0.945694
0.945876
0.946057
0.946237
0.946417
0.946595
0.946773
0.94695
0.947126
0.947302
0.947476
0.94765
0.947824
0.947996
0.948168
0.948339
0.948509
0.948678
0.948847
0.949015
0.949182
0.949349
0.949515
0.94968
0.949844
0.950008
0.950171
0.950334
0.950495
0.950656
0.950817
0.950976
0.951135
0.951294
0.951451
0.951608
0.951765
0.95192
0.952076
0.95223
0.952384
0.952537
0.952689
0.952841
0.952993
0.953143
0.953293
0.953443
0.953592
0.95374
0.953887
0.954034
0.954181
0.954327
0.954472
0.954616
0.954761
0.954904
0.955047
0.955189
0.955331
0.955472
0.955613
0.955753
0.955893
0.956032
0.95617
0.956308
0.956445
0.956582
0.956718
0.956854
0.956989
0.957124
0.957258
0.957392
0.957525
0.957657
0.95779
0.957921
0.958052
0.958183
0.958313
0.958442
0.958572
0.9587
0.958828
0.958956
0.959083
0.95921
0.959336
0.959461
0.959587
0.959711
0.959836
0.959959
0.960083
0.960206
0.960328
0.96045
0.960572
0.960693
0.960813
0.960933
0.961053
0.961172
0.961291
0.96141
0.961528
0.961645
0.961762
0.961879
0.961995
0.962111
0.962226
0.962341
0.962456
0.96257
0.962684
0.962797
0.96291
0.963023
0.963135
0.963247
0.963358
0.963469
0.963579
0.96369
0.963799
0.963909
0.964018
0.964126
0.964234
0.964342
0.96445
0.964557
0.964663
0.96477
0.964876
0.964981
0.965087
0.965191
0.965296
0.9654
0.965504
0.965607
0.96571
0.965813
0.965915
0.966017
0.966119
0.96622
0.966321
0.966422
0.966522
0.966622
0.966722
0.966821
0.96692
0.967018
0.967117
0.967215
0.967312
0.967409
0.967506
0.967603
0.967699
0.967795
0.967891
0.967986
0.968081
0.968176
0.96827
0.968364
0.968458
0.968552
0.968645
0.968738
0.96883
0.968923
0.969015
0.969106
0.969198
0.969289
0.969379
0.96947
0.96956
0.96965
0.96974
0.969829
0.969918
0.970007
0.970095
0.970183
0.970271
0.970359
0.970446
0.970533
0.97062
0.970706
0.970793
0.970879
0.970964
0.97105
0.971135
0.97122
0.971304
0.971389
0.971473
0.971557
0.97164
0.971724
0.971807
0.97189
0.971972
0.972054
0.972136
0.972218
0.9723
0.972381
0.972462
0.972543
0.972623
0.972704
0.972784
0.972864
0.972943
0.973022
0.973102
0.97318
0.973259
0.973337
0.973416
0.973493
0.973571
0.973649
0.973726
0.973803
0.973879
0.973956
0.974032
0.974108
0.974184
0.97426
0.974335
0.97441
0.974485
0.97456
0.974634
0.974709
0.974783
0.974857
0.97493
0.975004
0.975077
0.97515
0.975223
0.975295
0.975368
0.97544
0.975512
0.975583
0.975655
0.975726
0.975797
0.975868
0.975939
0.976009
0.97608
0.97615
0.97622
0.976289
0.976359
0.976428
0.976497
0.976566
0.976635
0.976704
0.976772
0.97684
0.976908
0.976976
0.977043
0.977111
0.977178
0.977245
0.977312
0.977378
0.977445
0.977511
0.977577
0.977643
0.977708
0.977774
0.977839
0.977904
0.977969
0.978034
0.978099
0.978163
0.978228
0.978292
0.978356
0.978419
0.978483
0.978546
0.978609
0.978672
0.978735
0.978798
0.97886
0.978923
0.978985
0.979047
0.979109
0.979171
0.979232
0.979293
0.979355
0.979416
0.979476
0.979537
0.979598
0.979658
0.979718
0.979778
0.979838
0.979898
0.979957
0.980017
0.980076
0.980135
0.980194
0.980253
0.980311
0.98037
0.980428
0.980486
0.980544
0.980602
0.98066
0.980717
0.980774
0.980832
0.980889
0.980946
0.981002
0.981059
0.981115
0.981172
0.981228
0.981284
0.98134
0.981396
0.981451
0.981507
0.981562
0.981617
0.981672
0.981727
0.981781
0.981836
0.98189
0.981945
0.981999
0.982053
0.982107
0.98216
0.982214
0.982267
0.982321
0.982374
0.982427
0.98248
0.982532
0.982585
0.982638
0.98269
0.982742
0.982794
0.982846
0.982898
0.982949
0.983001
0.983052
0.983104
0.983155
0.983206
0.983257
0.983307
0.983358
0.983408
0.983459
0.983509
0.983559
0.983609
0.983659
0.983708
0.983758
0.983807
0.983857
0.983906
0.983955
0.984004
0.984052
0.984101
0.98415
0.984198
0.984246
0.984294
0.984342
0.98439
0.984438
0.984486
0.984533
0.984581
0.984628
0.984675
0.984722
0.984769
0.984816
0.984862
0.984909
0.984955
0.985002
0.985048
0.985094
0.98514
0.985186
0.985231
0.985277
0.985322
0.985368
0.985413
0.985458
0.985503
0.985548
0.985592
0.985637
0.985682
0.985726
0.98577
0.985814
0.985858
0.985902
0.985946
0.98599
0.986033
0.986077
0.98612
0.986163
0.986206
0.986249
0.986292
0.986335
0.986378
0.98642
0.986462
0.986505
0.986547
0.986589
0.986631
0.986673
0.986714
0.986756
0.986797
0.986839
0.98688
0.986921
0.986962
0.987003
0.987044
0.987085
0.987125
0.987166
0.987206
0.987246
0.987286
0.987326
0.987366
0.987406
0.987445
0.987485
0.987524
0.987564
0.987603
0.987642
0.987681
0.98772
0.987759
0.987797
0.987836
0.987874
0.987913
0.987951
0.987989
0.988027
0.988065
0.988102
0.98814
0.988178
0.988215
0.988252
0.988289
0.988327
0.988363
0.9884
0.988437
0.988474
0.98851
0.988547
0.988583
0.988619
0.988655
0.988691
0.988727
0.988763
0.988798
0.988834
0.988869
0.988904
0.98894
0.988975
0.98901
0.989044
0.989079
0.989114
0.989148
0.989182
0.989217
0.989251
0.989285
0.989319
0.989353
0.989386
0.98942
0.989453
0.989487
0.98952
0.989553
0.989586
0.989619
0.989652
0.989684
0.989717
0.989749
0.989782
0.989814
0.989846
0.989878
0.98991
0.989941
0.989973
0.990004
0.990036
0.990067
0.990098
0.990129
0.99016
0.990191
0.990222
0.990252
0.990283
0.990313
0.990343
0.990373
0.990403
0.990433
0.990463
0.990492
0.990522
0.990551
0.990581
0.99061
0.990639
0.990668
0.990696
0.990725
0.990753
0.990782
0.99081
0.990838
0.990866
0.990894
0.990922
0.99095
0.990977
0.991005
0.991032
0.991059
0.991086
0.991113
0.99114
0.991166
0.991193
0.991219
0.991246
0.991272
0.991298
0.991324
0.99135
0.991375
0.991401
0.991426
0.991451
0.991476
0.991501
0.991526
0.991551
0.991576
0.9916
0.991624
0.991649
0.991673
0.991697
0.99172
0.991744
0.991768
0.991791
0.991814
0.991838
0.991861
0.991883
0.991906
0.991929
0.991951
0.991974
0.991996
0.992018
0.99204
0.992061
0.992083
0.992105
0.992126
0.992147
0.992168
0.992189
0.99221
0.992231
0.992251
0.992272
0.992292
0.992312
0.992332
0.992352
0.992371
0.992391
0.99241
0.992429
0.992448
0.992467
0.992486
0.992505
0.992523
0.992542
0.99256
0.992578
0.992596
0.992614
0.992631
0.992649
0.992666
0.992683
0.9927
0.992717
0.992734
0.99275
0.992767
0.992783
0.992799
0.992815
0.992831
0.992846
0.992862
0.992877
0.992892
0.992907
0.992922
0.992937
0.992951
0.992966
0.99298
0.992994
0.993008
0.993022
0.993035
0.993049
0.993062
0.993075
0.993088
0.993101
0.993113
0.993126
0.993138
0.99315
0.993162
0.993174
0.993186
0.993197
0.993209
0.99322
0.993231
0.993242
0.993253
0.993263
0.993274
0.993284
0.993294
0.993304
0.993313
0.993323
0.993332
0.993342
0.993351
0.993359
0.993368
0.993377
0.993385
0.993393
0.993401
0.993409
0.993417
0.993425
0.993432
0.993439
0.993446
0.993453
0.99346
0.993467
0.993473
0.993479
0.993485
0.993491
0.993497
0.993503
0.993508
0.993513
0.993518
0.993523
0.993528
0.993533
0.993537
0.993541
0.993545
0.993549
0.993553
0.993557
0.99356
0.993563
0.993566
0.993569
0.993572
0.993575
0.993577
0.993579
0.993581
0.993583
0.993585
0.993587
0.993588
0.99359
0.993591
0.993592
0.993592
0.993593
0.993594
0.993594
0.993594
2.8404e-06
3.23349e-06
3.63329e-06
4.07557e-06
4.68746e-06
5.77409e-06
6.82554e-06
7.76855e-06
8.6646e-06
9.53597e-06
1.03929e-05
1.12409e-05
1.20827e-05
1.29203e-05
1.37547e-05
1.45866e-05
1.54165e-05
1.62449e-05
1.70719e-05
1.78977e-05
1.87225e-05
1.95464e-05
2.03696e-05
2.1192e-05
2.20138e-05
2.2835e-05
2.36556e-05
2.44757e-05
2.52954e-05
2.61146e-05
2.69334e-05
2.77519e-05
2.85699e-05
2.93877e-05
3.02051e-05
3.10222e-05
3.18391e-05
3.26556e-05
3.34719e-05
3.4288e-05
3.51039e-05
3.59195e-05
3.67349e-05
3.75501e-05
3.83651e-05
3.91799e-05
3.99946e-05
4.08091e-05
4.16234e-05
4.24376e-05
4.32516e-05
4.40655e-05
4.48792e-05
4.56928e-05
4.65063e-05