/*--------------------------------*- C++ -*----------------------------------*\
| =========                 |                                                 |
| \\      /  F ield         | foam-extend: Open Source CFD                    |
|  \\    /   O peration     | Version:     5.0                                |
|   \\  /    A nd           | Web:         http://www.foam-extend.org         |
|    \\/     M anipulation  |                                                 |
\*---------------------------------------------------------------------------*/
FoamFile
{
    version     2.0;
    format      ascii;
    class       volScalarField;
    location    "15000";
    object      S.water;
}
// * * * * * * * * * * * * * * * * * * * * * * * * * * * * * * * * * * * * * //

dimensions      [0 0 0 0 0 0 0];

internalField   nonuniform List<scalar> 
1500
(
0.999997
0.999997
0.999996
0.999996
0.999995
0.999994
0.999993
0.999992
0.999991
0.99999
0.99999
0.999989
0.999988
0.999987
0.999986
0.999985
0.999985
0.999984
0.999983
0.999982
0.999981
0.99998
0.99998
0.999979
0.999978
0.999977
0.999976
0.999976
0.999975
0.999974
0.999973
0.999972
0.999971
0.999971
0.99997
0.999969
0.999968
0.999967
0.999967
0.999966
0.999965
0.999964
0.999963
0.999962
0.999962
0.999961
0.99996
0.999959
0.999958
0.999958
0.999957
0.999956
0.999955
0.999954
0.999953
0.999953
0.999952
0.999951
0.99995
0.999949
0.999949
0.999948
0.999947
0.999946
0.999945
0.999945
0.999944
0.999943
0.999942
0.999941
0.99994
0.99994
0.999939
0.999938
0.999937
0.999936
0.999936
0.999935
0.999934
0.999933
0.999932
0.999932
0.999931
0.99993
0.999929
0.999928
0.999928
0.999927
0.999926
0.999925
0.999924
0.999923
0.999923
0.999922
0.999921
0.99992
0.999919
0.999919
0.999918
0.999917
0.999916
0.999915
0.999915
0.999914
0.999913
0.999912
0.999911
0.99991
0.99991
0.999909
0.999908
0.999907
0.999906
0.999906
0.999905
0.999904
0.999903
0.999902
0.999902
0.999901
0.9999
0.999899
0.999898
0.999898
0.999897
0.999896
0.999895
0.999894
0.999893
0.999893
0.999892
0.999891
0.99989
0.999889
0.999889
0.999888
0.999887
0.999886
0.999885
0.999885
0.999884
0.999883
0.999882
0.999881
0.999881
0.99988
0.999879
0.999878
0.999877
0.999876
0.999876
0.999875
0.999874
0.999873
0.999872
0.999872
0.999871
0.99987
0.999869
0.999868
0.999868
0.999867
0.999866
0.999865
0.999864
0.999864
0.999863
0.999862
0.999861
0.99986
0.99986
0.999859
0.999858
0.999857
0.999856
0.999855
0.999855
0.999854
0.999853
0.999852
0.999851
0.999851
0.99985
0.999849
0.999848
0.999847
0.999847
0.999846
0.999845
0.999844
0.999843
0.999843
0.999842
0.999841
0.99984
0.999839
0.999838
0.999838
0.999837
0.999836
0.999835
0.999834
0.999834
0.999833
0.999832
0.999831
0.99983
0.99983
0.999829
0.999828
0.999827
0.999826
0.999826
0.999825
0.999824
0.999823
0.999822
0.999822
0.999821
0.99982
0.999819
0.999818
0.999817
0.999817
0.999816
0.999815
0.999814
0.999813
0.999813
0.999812
0.999811
0.99981
0.999809
0.999809
0.999808
0.999807
0.999806
0.999805
0.999805
0.999804
0.999803
0.999802
0.9998
0.999566
0.988897
0.976001
0.963358
0.950961
0.938803
0.926878
0.915179
0.903702
0.89244
0.881388
0.870542
0.859894
0.849442
0.83918
0.829104
0.819208
0.80949
0.799943
0.790566
0.781353
0.7723
0.763405
0.754663
0.74607
0.737624
0.729321
0.721158
0.713132
0.70524
0.697478
0.689844
0.682335
0.674948
0.667681
0.660531
0.653496
0.646572
0.639759
0.633053
0.626452
0.619954
0.613557
0.607259
0.601057
0.59495
0.588936
0.583013
0.57718
0.571433
0.565772
0.560195
0.5547
0.549286
0.543951
0.538694
0.533512
0.528405
0.523371
0.518409
0.513517
0.508695
0.50394
0.499251
0.494628
0.490069
0.485573
0.481138
0.476764
0.472449
0.468193
0.463994
0.459852
0.455765
0.451732
0.447752
0.443825
0.439949
0.436124
0.432349
0.428623
0.424944
0.421313
0.417728
0.414189
0.410695
0.407245
0.403838
0.400473
0.397151
0.393869
0.390629
0.387428
0.384266
0.381143
0.378058
0.37501
0.371999
0.369024
0.366084
0.36318
0.36031
0.357474
0.354671
0.351901
0.349163
0.346457
0.343783
0.341139
0.338526
0.335942
0.333388
0.330863
0.328367
0.325898
0.323458
0.321044
0.318658
0.316298
0.313964
0.311656
0.309373
0.307115
0.304882
0.302673
0.300488
0.298326
0.296188
0.294072
0.291979
0.289909
0.28786
0.285832
0.283826
0.281841
0.279877
0.277933
0.27601
0.274106
0.272222
0.270357
0.268511
0.266683
0.264875
0.263085
0.261312
0.259558
0.257821
0.256101
0.254399
0.252713
0.251044
0.249391
0.247755
0.246135
0.24453
0.242941
0.241367
0.239809
0.238265
0.236736
0.235222
0.233723
0.232237
0.230766
0.229308
0.227864
0.226434
0.225017
0.223613
0.222222
0.220844
0.219479
0.218127
0.216786
0.215458
0.214142
0.212838
0.211546
0.210266
0.208997
0.207739
0.206493
0.205257
0.204033
0.20282
0.201617
0.200425
0.199243
0.198072
0.196911
0.19576
0.194618
0.193487
0.192366
0.191254
0.190152
0.189059
0.187975
0.186901
0.185836
0.18478
0.183732
0.182694
0.181664
0.180643
0.17963
0.178626
0.17763
0.176642
0.175662
0.174691
0.173727
0.172771
0.171823
0.170883
0.16995
0.169025
0.168107
0.167197
0.166294
0.165398
0.164509
0.163627
0.162753
0.161885
0.161024
0.16017
0.159322
0.158481
0.157647
0.156819
0.155998
0.155183
0.154374
0.153571
0.152775
0.151984
0.1512
0.150422
0.149649
0.148883
0.148122
0.147367
0.146617
0.145873
0.145135
0.144402
0.143675
0.142953
0.142236
0.141525
0.140819
0.140118
0.139422
0.138732
0.138046
0.137365
0.136689
0.136018
0.135352
0.134691
0.134034
0.133383
0.132735
0.132093
0.131455
0.130821
0.130192
0.129568
0.128947
0.128331
0.12772
0.127112
0.126509
0.12591
0.125316
0.124725
0.124138
0.123556
0.122977
0.122403
0.121832
0.121265
0.120702
0.120143
0.119588
0.119036
0.118488
0.117944
0.117403
0.116867
0.116333
0.115803
0.115277
0.114754
0.114235
0.113719
0.113206
0.112697
0.112191
0.111688
0.111189
0.110693
0.1102
0.10971
0.109224
0.10874
0.10826
0.107783
0.107309
0.106838
0.106369
0.105904
0.105442
0.104983
0.104526
0.104073
0.103622
0.103174
0.102729
0.102287
0.101847
0.10141
0.100976
0.100545
0.100116
0.0996897
0.0992662
0.0988452
0.0984268
0.098011
0.0975977
0.0971869
0.0967786
0.0963727
0.0959693
0.0955684
0.0951698
0.0947736
0.0943798
0.0939884
0.0935992
0.0932124
0.0928279
0.0924456
0.0920656
0.0916879
0.0913123
0.090939
0.0905678
0.0901988
0.089832
0.0894672
0.0891046
0.0887441
0.0883857
0.0880293
0.087675
0.0873228
0.0869725
0.0866242
0.086278
0.0859337
0.0855913
0.0852509
0.0849124
0.0845758
0.0842411
0.0839083
0.0835774
0.0832483
0.0829211
0.0825956
0.082272
0.0819502
0.0816301
0.0813119
0.0809954
0.0806806
0.0803675
0.0800562
0.0797466
0.0794386
0.0791323
0.0788277
0.0785248
0.0782235
0.0779238
0.0776257
0.0773293
0.0770344
0.0767411
0.0764494
0.0761592
0.0758706
0.0755835
0.0752979
0.0750139
0.0747313
0.0744503
0.0741707
0.0738926
0.0736159
0.0733407
0.0730669
0.0727946
0.0725236
0.0722541
0.071986
0.0717192
0.0714538
0.0711898
0.0709272
0.0706659
0.0704059
0.0701473
0.0698899
0.0696339
0.0693792
0.0691258
0.0688736
0.0686228
0.0683732
0.0681248
0.0678777
0.0676318
0.0673872
0.0671438
0.0669016
0.0666606
0.0664208
0.0661821
0.0659447
0.0657084
0.0654733
0.0652393
0.0650065
0.0647749
0.0645443
0.0643149
0.0640866
0.0638594
0.0636333
0.0634083
0.0631844
0.0629616
0.0627398
0.0625191
0.0622995
0.0620809
0.0618633
0.0616468
0.0614314
0.0612169
0.0610035
0.060791
0.0605796
0.0603691
0.0601597
0.0599512
0.0597437
0.0595372
0.0593317
0.0591271
0.0589234
0.0587207
0.0585189
0.0583181
0.0581182
0.0579192
0.0577211
0.057524
0.0573277
0.0571324
0.0569379
0.0567443
0.0565516
0.0563597
0.0561688
0.0559787
0.0557894
0.055601
0.0554135
0.0552268
0.0550409
0.0548559
0.0546717
0.0544883
0.0543057
0.0541239
0.0539429
0.0537628
0.0535834
0.0534048
0.053227
0.05305
0.0528738
0.0526983
0.0525236
0.0523497
0.0521765
0.052004
0.0518323
0.0516614
0.0514912
0.0513217
0.051153
0.0509849
0.0508176
0.0506511
0.0504852
0.05032
0.0501555
0.0499918
0.0498287
0.0496663
0.0495046
0.0493436
0.0491833
0.0490236
0.0488646
0.0487063
0.0485486
0.0483916
0.0482352
0.0480795
0.0479244
0.04777
0.0476162
0.0474631
0.0473106
0.0471587
0.0470074
0.0468568
0.0467067
0.0465573
0.0464085
0.0462603
0.0461127
0.0459657
0.0458193
0.0456734
0.0455282
0.0453836
0.0452395
0.045096
0.0449531
0.0448107
0.044669
0.0445277
0.0443871
0.044247
0.0441075
0.0439685
0.04383
0.0436921
0.0435548
0.043418
0.0432817
0.043146
0.0430108
0.0428761
0.0427419
0.0426083
0.0424751
0.0423425
0.0422104
0.0420789
0.0419478
0.0418172
0.0416871
0.0415576
0.0414285
0.0412999
0.0411718
0.0410442
0.0409171
0.0407904
0.0406643
0.0405386
0.0404134
0.0402886
0.0401643
0.0400405
0.0399172
0.0397943
0.0396719
0.0395499
0.0394284
0.0393074
0.0391867
0.0390666
0.0389469
0.0388276
0.0387087
0.0385903
0.0384724
0.0383548
0.0382377
0.038121
0.0380048
0.0378889
0.0377735
0.0376585
0.037544
0.0374298
0.0373161
0.0372027
0.0370898
0.0369773
0.0368651
0.0367534
0.0366421
0.0365311
0.0364206
0.0363105
0.0362007
0.0360914
0.0359824
0.0358738
0.0357656
0.0356578
0.0355503
0.0354432
0.0353365
0.0352302
0.0351243
0.0350187
0.0349135
0.0348086
0.0347041
0.0346
0.0344962
0.0343928
0.0342898
0.0341871
0.0340847
0.0339827
0.0338811
0.0337798
0.0336788
0.0335782
0.0334779
0.033378
0.0332784
0.0331792
0.0330802
0.0329817
0.0328834
0.0327855
0.0326879
0.0325906
0.0324937
0.032397
0.0323007
0.0322048
0.0321091
0.0320138
0.0319187
0.031824
0.0317296
0.0316355
0.0315417
0.0314483
0.0313551
0.0312622
0.0311697
0.0310774
0.0309855
0.0308938
0.0308025
0.0307114
0.0306206
0.0305302
0.03044
0.0303501
0.0302605
0.0301712
0.0300821
0.0299934
0.0299049
0.0298167
0.0297288
0.0296412
0.0295539
0.0294668
0.02938
0.0292935
0.0292073
0.0291213
0.0290356
0.0289502
0.028865
0.0287801
0.0286955
0.0286112
0.0285271
0.0284432
0.0283596
0.0282763
0.0281933
0.0281105
0.0280279
0.0279456
0.0278636
0.0277818
0.0277003
0.027619
0.0275379
0.0274571
0.0273766
0.0272963
0.0272162
0.0271364
0.0270569
0.0269775
0.0268985
0.0268196
0.026741
0.0266626
0.0265845
0.0265066
0.0264289
0.0263515
0.0262743
0.0261973
0.0261206
0.0260441
0.0259678
0.0258917
0.0258159
0.0257403
0.0256649
0.0255897
0.0255148
0.0254401
0.0253656
0.0252913
0.0252172
0.0251434
0.0250697
0.0249963
0.0249231
0.0248501
0.0247773
0.0247048
0.0246324
0.0245603
0.0244883
0.0244166
0.0243451
0.0242738
0.0242027
0.0241317
0.024061
0.0239905
0.0239202
0.0238501
0.0237802
0.0237105
0.023641
0.0235717
0.0235026
0.0234337
0.023365
0.0232965
0.0232282
0.02316
0.0230921
0.0230244
0.0229568
0.0228894
0.0228222
0.0227553
0.0226884
0.0226218
0.0225554
0.0224892
0.0224231
0.0223572
0.0222915
0.022226
0.0221607
0.0220955
0.0220306
0.0219658
0.0219012
0.0218367
0.0217725
0.0217084
0.0216445
0.0215808
0.0215172
0.0214538
0.0213906
0.0213276
0.0212647
0.0212021
0.0211395
0.0210772
0.021015
0.020953
0.0208912
0.0208295
0.020768
0.0207067
0.0206455
0.0205845
0.0205236
0.020463
0.0204024
0.0203421
0.0202819
0.0202219
0.020162
0.0201023
0.0200427
0.0199834
0.0199241
0.0198651
0.0198062
0.0197474
0.0196888
0.0196304
0.0195721
0.0195139
0.019456
0.0193981
0.0193405
0.0192829
0.0192256
0.0191684
0.0191113
0.0190544
0.0189976
0.018941
0.0188846
0.0188283
0.0187721
0.0187161
0.0186602
0.0186045
0.0185489
0.0184935
0.0184382
0.0183831
0.0183281
0.0182732
0.0182185
0.018164
0.0181095
0.0180553
0.0180011
0.0179471
0.0178933
0.0178396
0.017786
0.0177326
0.0176793
0.0176261
0.0175731
0.0175202
0.0174675
0.0174149
0.0173624
0.0173101
0.0172579
0.0172059
0.0171539
0.0171022
0.0170505
0.016999
0.0169476
0.0168964
0.0168453
0.0167943
0.0167434
0.0166927
0.0166421
0.0165917
0.0165413
0.0164911
0.0164411
0.0163912
0.0163414
0.0162917
0.0162421
0.0161927
0.0161434
0.0160943
0.0160452
0.0159963
0.0159476
0.0158989
0.0158504
0.015802
0.0157537
0.0157056
0.0156576
0.0156097
0.0155619
0.0155143
0.0154667
0.0154193
0.0153721
0.0153249
0.0152779
0.015231
0.0151842
0.0151376
0.015091
0.0150446
0.0149983
0.0149521
0.0149061
0.0148602
0.0148144
0.0147687
0.0147231
0.0146777
0.0146323
0.0145871
0.014542
0.0144971
0.0144522
0.0144075
0.0143629
0.0143184
0.014274
0.0142298
0.0141856
0.0141416
0.0140977
0.0140539
0.0140102
0.0139667
0.0139233
0.0138799
0.0138367
0.0137937
0.0137507
0.0137078
0.0136651
0.0136225
0.01358
0.0135376
0.0134953
0.0134531
0.0134111
0.0133692
0.0133273
0.0132856
0.0132441
0.0132026
0.0131612
0.01312
0.0130789
0.0130378
0.0129969
0.0129562
0.0129155
0.0128749
0.0128345
0.0127941
0.0127539
0.0127138
0.0126738
0.0126339
0.0125942
0.0125545
0.012515
0.0124755
0.0124362
0.012397
0.0123579
0.0123189
0.0122801
0.0122413
0.0122027
0.0121641
0.0121257
0.0120874
0.0120492
0.0120111
0.0119732
0.0119353
0.0118976
0.0118599
0.0118224
0.011785
0.0117477
0.0117105
0.0116735
0.0116365
0.0115997
0.0115629
0.0115263
0.0114898
0.0114534
0.0114171
0.011381
0.0113449
0.011309
0.0112731
0.0112374
0.0112018
0.0111663
0.0111309
0.0110956
0.0110605
0.0110254
0.0109905
0.0109557
0.010921
0.0108864
0.0108519
0.0108175
0.0107833
0.0107491
0.0107151
0.0106812
0.0106474
0.0106137
0.0105802
0.0105467
0.0105134
0.0104801
0.010447
0.010414
0.0103811
0.0103484
0.0103157
0.0102832
0.0102507
0.0102184
0.0101862
0.0101542
0.0101222
0.0100904
0.0100586
0.010027
0.00999553
0.00996415
0.00993289
0.00990174
0.00987071
0.0098398
0.00980901
0.00977833
0.00974778
0.00971734
0.00968702
0.00965682
0.00962673
0.00959677
0.00956692
0.0095372
0.00950759
0.00947811
0.00944874
0.00941949
0.00939037
0.00936136
0.00933248
0.00930372
0.00927508
0.00924656
0.00921816
0.00918989
0.00916174
0.00913371
0.0091058
0.00907802
0.00905036
0.00902283
0.00899541
0.00896813
0.00894097
0.00891393
0.00888702
0.00886023
0.00883357
0.00880704
0.00878063
0.00875435
0.00872819
0.00870217
0.00867627
0.0086505
0.00862485
0.00859934
0.00857395
0.0085487
0.00852357
0.00849857
0.00847371
0.00844897
0.00842437
0.00839989
0.00837555
0.00835134
0.00832726
0.00830332
0.0082795
0.00825582
0.00823228
0.00820887
0.00818559
0.00816245
0.00813944
0.00811657
0.00809383
0.00807123
0.00804876
0.00802644
0.00800425
0.00798219
0.00796028
0.0079385
0.00791687
0.00789537
0.00787401
0.00785279
0.00783171
0.00781077
0.00778997
0.00776932
0.0077488
0.00772843
0.0077082
0.00768811
0.00766817
0.00764837
0.00762871
0.0076092
0.00758983
0.00757061
0.00755153
0.0075326
0.00751381
0.00749517
0.00747668
0.00745834
0.00744014
0.00742209
0.00740419
0.00738644
0.00736884
0.00735139
0.00733409
0.00731694
0.00729994
0.00728309
0.00726639
0.00724984
0.00723345
0.0072172
0.00720112
0.00718518
0.0071694
0.00715377
0.0071383
0.00712298
0.00710781
0.0070928
0.00707795
0.00706325
0.00704871
0.00703433
0.0070201
0.00700603
0.00699212
0.00697836
0.00696477
0.00695133
0.00693805
0.00692493
0.00691197
0.00689917
0.00688653
0.00687404
0.00686172
0.00684957
0.00683757
0.00682573
0.00681405
0.00680254
0.00679119
0.00678
0.00676897
0.00675811
0.00674741
0.00673687
0.00672649
0.00671628
0.00670624
0.00669635
0.00668663
0.00667708
0.00666769
0.00665846
0.0066494
0.00664051
0.00663177
0.00662321
0.00661481
0.00660657
0.0065985
0.0065906
0.00658286
0.00657529
0.00656788
0.00656064
0.00655357
0.00654666
0.00653992
0.00653334
0.00652693
0.00652069
0.00651461
0.0065087
0.00650295
0.00649738
0.00649196
0.00648672
0.00648164
0.00647672
0.00647198
0.00646739
0.00646298
0.00645873
0.00645464
0.00645072
0.00644697
0.00644338
0.00643996
0.0064367
0.00643361
0.00643068
0.00642792
0.00642532
0.00642288
0.00642061
0.0064185
0.00641656
0.00641478
0.00641316
0.00641171
0.00641042
0.00640929
0.00640832
0.00640752
0.00640688
0.00640639
0.00640607
0.00640591
)
;

boundaryField
{
    bottom
    {
        type            calculated;
        value           uniform 0.5;
    }
    top
    {
        type            calculated;
        value           uniform 0.00640591;
    }
    walls
    {
        type            calculated;
        value           nonuniform List<scalar> 
6000
(
0.999997
0.999997
0.999996
0.999996
0.999995
0.999994
0.999993
0.999992
0.999991
0.99999
0.99999
0.999989
0.999988
0.999987
0.999986
0.999985
0.999985
0.999984
0.999983
0.999982
0.999981
0.99998
0.99998
0.999979
0.999978
0.999977
0.999976
0.999976
0.999975
0.999974
0.999973
0.999972
0.999971
0.999971
0.99997
0.999969
0.999968
0.999967
0.999967
0.999966
0.999965
0.999964
0.999963
0.999962
0.999962
0.999961
0.99996
0.999959
0.999958
0.999958
0.999957
0.999956
0.999955
0.999954
0.999953
0.999953
0.999952
0.999951
0.99995
0.999949
0.999949
0.999948
0.999947
0.999946
0.999945
0.999945
0.999944
0.999943
0.999942
0.999941
0.99994
0.99994
0.999939
0.999938
0.999937
0.999936
0.999936
0.999935
0.999934
0.999933
0.999932
0.999932
0.999931
0.99993
0.999929
0.999928
0.999928
0.999927
0.999926
0.999925
0.999924
0.999923
0.999923
0.999922
0.999921
0.99992
0.999919
0.999919
0.999918
0.999917
0.999916
0.999915
0.999915
0.999914
0.999913
0.999912
0.999911
0.99991
0.99991
0.999909
0.999908
0.999907
0.999906
0.999906
0.999905
0.999904
0.999903
0.999902
0.999902
0.999901
0.9999
0.999899
0.999898
0.999898
0.999897
0.999896
0.999895
0.999894
0.999893
0.999893
0.999892
0.999891
0.99989
0.999889
0.999889
0.999888
0.999887
0.999886
0.999885
0.999885
0.999884
0.999883
0.999882
0.999881
0.999881
0.99988
0.999879
0.999878
0.999877
0.999876
0.999876
0.999875
0.999874
0.999873
0.999872
0.999872
0.999871
0.99987
0.999869
0.999868
0.999868
0.999867
0.999866
0.999865
0.999864
0.999864
0.999863
0.999862
0.999861
0.99986
0.99986
0.999859
0.999858
0.999857
0.999856
0.999855
0.999855
0.999854
0.999853
0.999852
0.999851
0.999851
0.99985
0.999849
0.999848
0.999847
0.999847
0.999846
0.999845
0.999844
0.999843
0.999843
0.999842
0.999841
0.99984
0.999839
0.999838
0.999838
0.999837
0.999836
0.999835
0.999834
0.999834
0.999833
0.999832
0.999831
0.99983
0.99983
0.999829
0.999828
0.999827
0.999826
0.999826
0.999825
0.999824
0.999823
0.999822
0.999822
0.999821
0.99982
0.999819
0.999818
0.999817
0.999817
0.999816
0.999815
0.999814
0.999813
0.999813
0.999812
0.999811
0.99981
0.999809
0.999809
0.999808
0.999807
0.999806
0.999805
0.999805
0.999804
0.999803
0.999802
0.9998
0.999566
0.988897
0.976001
0.963358
0.950961
0.938803
0.926878
0.915179
0.903702
0.89244
0.881388
0.870542
0.859894
0.849442
0.83918
0.829104
0.819208
0.80949
0.799943
0.790566
0.781353
0.7723
0.763405
0.754663
0.74607
0.737624
0.729321
0.721158
0.713132
0.70524
0.697478
0.689844
0.682335
0.674948
0.667681
0.660531
0.653496
0.646572
0.639759
0.633053
0.626452
0.619954
0.613557
0.607259
0.601057
0.59495
0.588936
0.583013
0.57718
0.571433
0.565772
0.560195
0.5547
0.549286
0.543951
0.538694
0.533512
0.528405
0.523371
0.518409
0.513517
0.508695
0.50394
0.499251
0.494628
0.490069
0.485573
0.481138
0.476764
0.472449
0.468193
0.463994
0.459852
0.455765
0.451732
0.447752
0.443825
0.439949
0.436124
0.432349
0.428623
0.424944
0.421313
0.417728
0.414189
0.410695
0.407245
0.403838
0.400473
0.397151
0.393869
0.390629
0.387428
0.384266
0.381143
0.378058
0.37501
0.371999
0.369024
0.366084
0.36318
0.36031
0.357474
0.354671
0.351901
0.349163
0.346457
0.343783
0.341139
0.338526
0.335942
0.333388
0.330863
0.328367
0.325898
0.323458
0.321044
0.318658
0.316298
0.313964
0.311656
0.309373
0.307115
0.304882
0.302673
0.300488
0.298326
0.296188
0.294072
0.291979
0.289909
0.28786
0.285832
0.283826
0.281841
0.279877
0.277933
0.27601
0.274106
0.272222
0.270357
0.268511
0.266683
0.264875
0.263085
0.261312
0.259558
0.257821
0.256101
0.254399
0.252713
0.251044
0.249391
0.247755
0.246135
0.24453
0.242941
0.241367
0.239809
0.238265
0.236736
0.235222
0.233723
0.232237
0.230766
0.229308
0.227864
0.226434
0.225017
0.223613
0.222222
0.220844
0.219479
0.218127
0.216786
0.215458
0.214142
0.212838
0.211546
0.210266
0.208997
0.207739
0.206493
0.205257
0.204033
0.20282
0.201617
0.200425
0.199243
0.198072
0.196911
0.19576
0.194618
0.193487
0.192366
0.191254
0.190152
0.189059
0.187975
0.186901
0.185836
0.18478
0.183732
0.182694
0.181664
0.180643
0.17963
0.178626
0.17763
0.176642
0.175662
0.174691
0.173727
0.172771
0.171823
0.170883
0.16995
0.169025
0.168107
0.167197
0.166294
0.165398
0.164509
0.163627
0.162753
0.161885
0.161024
0.16017
0.159322
0.158481
0.157647
0.156819
0.155998
0.155183
0.154374
0.153571
0.152775
0.151984
0.1512
0.150422
0.149649
0.148883
0.148122
0.147367
0.146617
0.145873
0.145135
0.144402
0.143675
0.142953
0.142236
0.141525
0.140819
0.140118
0.139422
0.138732
0.138046
0.137365
0.136689
0.136018
0.135352
0.134691
0.134034
0.133383
0.132735
0.132093
0.131455
0.130821
0.130192
0.129568
0.128947
0.128331
0.12772
0.127112
0.126509
0.12591
0.125316
0.124725
0.124138
0.123556
0.122977
0.122403
0.121832
0.121265
0.120702
0.120143
0.119588
0.119036
0.118488
0.117944
0.117403
0.116867
0.116333
0.115803
0.115277
0.114754
0.114235
0.113719
0.113206
0.112697
0.112191
0.111688
0.111189
0.110693
0.1102
0.10971
0.109224
0.10874
0.10826
0.107783
0.107309
0.106838
0.106369
0.105904
0.105442
0.104983
0.104526
0.104073
0.103622
0.103174
0.102729
0.102287
0.101847
0.10141
0.100976
0.100545
0.100116
0.0996897
0.0992662
0.0988452
0.0984268
0.098011
0.0975977
0.0971869
0.0967786
0.0963727
0.0959693
0.0955684
0.0951698
0.0947736
0.0943798
0.0939884
0.0935992
0.0932124
0.0928279
0.0924456
0.0920656
0.0916879
0.0913123
0.090939
0.0905678
0.0901988
0.089832
0.0894672
0.0891046
0.0887441
0.0883857
0.0880293
0.087675
0.0873228
0.0869725
0.0866242
0.086278
0.0859337
0.0855913
0.0852509
0.0849124
0.0845758
0.0842411
0.0839083
0.0835774
0.0832483
0.0829211
0.0825956
0.082272
0.0819502
0.0816301
0.0813119
0.0809954
0.0806806
0.0803675
0.0800562
0.0797466
0.0794386
0.0791323
0.0788277
0.0785248
0.0782235
0.0779238
0.0776257
0.0773293
0.0770344
0.0767411
0.0764494
0.0761592
0.0758706
0.0755835
0.0752979
0.0750139
0.0747313
0.0744503
0.0741707
0.0738926
0.0736159
0.0733407
0.0730669
0.0727946
0.0725236
0.0722541
0.071986
0.0717192
0.0714538
0.0711898
0.0709272
0.0706659
0.0704059
0.0701473
0.0698899
0.0696339
0.0693792
0.0691258
0.0688736
0.0686228
0.0683732
0.0681248
0.0678777
0.0676318
0.0673872
0.0671438
0.0669016
0.0666606
0.0664208
0.0661821
0.0659447
0.0657084
0.0654733
0.0652393
0.0650065
0.0647749
0.0645443
0.0643149
0.0640866
0.0638594
0.0636333
0.0634083
0.0631844
0.0629616
0.0627398
0.0625191
0.0622995
0.0620809
0.0618633
0.0616468
0.0614314
0.0612169
0.0610035
0.060791
0.0605796
0.0603691
0.0601597
0.0599512
0.0597437
0.0595372
0.0593317
0.0591271
0.0589234
0.0587207
0.0585189
0.0583181
0.0581182
0.0579192
0.0577211
0.057524
0.0573277
0.0571324
0.0569379
0.0567443
0.0565516
0.0563597
0.0561688
0.0559787
0.0557894
0.055601
0.0554135
0.0552268
0.0550409
0.0548559
0.0546717
0.0544883
0.0543057
0.0541239
0.0539429
0.0537628
0.0535834
0.0534048
0.053227
0.05305
0.0528738
0.0526983
0.0525236
0.0523497
0.0521765
0.052004
0.0518323
0.0516614
0.0514912
0.0513217
0.051153
0.0509849
0.0508176
0.0506511
0.0504852
0.05032
0.0501555
0.0499918
0.0498287
0.0496663
0.0495046
0.0493436
0.0491833
0.0490236
0.0488646
0.0487063
0.0485486
0.0483916
0.0482352
0.0480795
0.0479244
0.04777
0.0476162
0.0474631
0.0473106
0.0471587
0.0470074
0.0468568
0.0467067
0.0465573
0.0464085
0.0462603
0.0461127
0.0459657
0.0458193
0.0456734
0.0455282
0.0453836
0.0452395
0.045096
0.0449531
0.0448107
0.044669
0.0445277
0.0443871
0.044247
0.0441075
0.0439685
0.04383
0.0436921
0.0435548
0.043418
0.0432817
0.043146
0.0430108
0.0428761
0.0427419
0.0426083
0.0424751
0.0423425
0.0422104
0.0420789
0.0419478
0.0418172
0.0416871
0.0415576
0.0414285
0.0412999
0.0411718
0.0410442
0.0409171
0.0407904
0.0406643
0.0405386
0.0404134
0.0402886
0.0401643
0.0400405
0.0399172
0.0397943
0.0396719
0.0395499
0.0394284
0.0393074
0.0391867
0.0390666
0.0389469
0.0388276
0.0387087
0.0385903
0.0384724
0.0383548
0.0382377
0.038121
0.0380048
0.0378889
0.0377735
0.0376585
0.037544
0.0374298
0.0373161
0.0372027
0.0370898
0.0369773
0.0368651
0.0367534
0.0366421
0.0365311
0.0364206
0.0363105
0.0362007
0.0360914
0.0359824
0.0358738
0.0357656
0.0356578
0.0355503
0.0354432
0.0353365
0.0352302
0.0351243
0.0350187
0.0349135
0.0348086
0.0347041
0.0346
0.0344962
0.0343928
0.0342898
0.0341871
0.0340847
0.0339827
0.0338811
0.0337798
0.0336788
0.0335782
0.0334779
0.033378
0.0332784
0.0331792
0.0330802
0.0329817
0.0328834
0.0327855
0.0326879
0.0325906
0.0324937
0.032397
0.0323007
0.0322048
0.0321091
0.0320138
0.0319187
0.031824
0.0317296
0.0316355
0.0315417
0.0314483
0.0313551
0.0312622
0.0311697
0.0310774
0.0309855
0.0308938
0.0308025
0.0307114
0.0306206
0.0305302
0.03044
0.0303501
0.0302605
0.0301712
0.0300821
0.0299934
0.0299049
0.0298167
0.0297288
0.0296412
0.0295539
0.0294668
0.02938
0.0292935
0.0292073
0.0291213
0.0290356
0.0289502
0.028865
0.0287801
0.0286955
0.0286112
0.0285271
0.0284432
0.0283596
0.0282763
0.0281933
0.0281105
0.0280279
0.0279456
0.0278636
0.0277818
0.0277003
0.027619
0.0275379
0.0274571
0.0273766
0.0272963
0.0272162
0.0271364
0.0270569
0.0269775
0.0268985
0.0268196
0.026741
0.0266626
0.0265845
0.0265066
0.0264289
0.0263515
0.0262743
0.0261973
0.0261206
0.0260441
0.0259678
0.0258917
0.0258159
0.0257403
0.0256649
0.0255897
0.0255148
0.0254401
0.0253656
0.0252913
0.0252172
0.0251434
0.0250697
0.0249963
0.0249231
0.0248501
0.0247773
0.0247048
0.0246324
0.0245603
0.0244883
0.0244166
0.0243451
0.0242738
0.0242027
0.0241317
0.024061
0.0239905
0.0239202
0.0238501
0.0237802
0.0237105
0.023641
0.0235717
0.0235026
0.0234337
0.023365
0.0232965
0.0232282
0.02316
0.0230921
0.0230244
0.0229568
0.0228894
0.0228222
0.0227553
0.0226884
0.0226218
0.0225554
0.0224892
0.0224231
0.0223572
0.0222915
0.022226
0.0221607
0.0220955
0.0220306
0.0219658
0.0219012
0.0218367
0.0217725
0.0217084
0.0216445
0.0215808
0.0215172
0.0214538
0.0213906
0.0213276
0.0212647
0.0212021
0.0211395
0.0210772
0.021015
0.020953
0.0208912
0.0208295
0.020768
0.0207067
0.0206455
0.0205845
0.0205236
0.020463
0.0204024
0.0203421
0.0202819
0.0202219
0.020162
0.0201023
0.0200427
0.0199834
0.0199241
0.0198651
0.0198062
0.0197474
0.0196888
0.0196304
0.0195721
0.0195139
0.019456
0.0193981
0.0193405
0.0192829
0.0192256
0.0191684
0.0191113
0.0190544
0.0189976
0.018941
0.0188846
0.0188283
0.0187721
0.0187161
0.0186602
0.0186045
0.0185489
0.0184935
0.0184382
0.0183831
0.0183281
0.0182732
0.0182185
0.018164
0.0181095
0.0180553
0.0180011
0.0179471
0.0178933
0.0178396
0.017786
0.0177326
0.0176793
0.0176261
0.0175731
0.0175202
0.0174675
0.0174149
0.0173624
0.0173101
0.0172579
0.0172059
0.0171539
0.0171022
0.0170505
0.016999
0.0169476
0.0168964
0.0168453
0.0167943
0.0167434
0.0166927
0.0166421
0.0165917
0.0165413
0.0164911
0.0164411
0.0163912
0.0163414
0.0162917
0.0162421
0.0161927
0.0161434
0.0160943
0.0160452
0.0159963
0.0159476
0.0158989
0.0158504
0.015802
0.0157537
0.0157056
0.0156576
0.0156097
0.0155619
0.0155143
0.0154667
0.0154193
0.0153721
0.0153249
0.0152779
0.015231
0.0151842
0.0151376
0.015091
0.0150446
0.0149983
0.0149521
0.0149061
0.0148602
0.0148144
0.0147687
0.0147231
0.0146777
0.0146323
0.0145871
0.014542
0.0144971
0.0144522
0.0144075
0.0143629
0.0143184
0.014274
0.0142298
0.0141856
0.0141416
0.0140977
0.0140539
0.0140102
0.0139667
0.0139233
0.0138799
0.0138367
0.0137937
0.0137507
0.0137078
0.0136651
0.0136225
0.01358
0.0135376
0.0134953
0.0134531
0.0134111
0.0133692
0.0133273
0.0132856
0.0132441
0.0132026
0.0131612
0.01312
0.0130789
0.0130378
0.0129969
0.0129562
0.0129155
0.0128749
0.0128345
0.0127941
0.0127539
0.0127138
0.0126738
0.0126339
0.0125942
0.0125545
0.012515
0.0124755
0.0124362
0.012397
0.0123579
0.0123189
0.0122801
0.0122413
0.0122027
0.0121641
0.0121257
0.0120874
0.0120492
0.0120111
0.0119732
0.0119353
0.0118976
0.0118599
0.0118224
0.011785
0.0117477
0.0117105
0.0116735
0.0116365
0.0115997
0.0115629
0.0115263
0.0114898
0.0114534
0.0114171
0.011381
0.0113449
0.011309
0.0112731
0.0112374
0.0112018
0.0111663
0.0111309
0.0110956
0.0110605
0.0110254
0.0109905
0.0109557
0.010921
0.0108864
0.0108519
0.0108175
0.0107833
0.0107491
0.0107151
0.0106812
0.0106474
0.0106137
0.0105802
0.0105467
0.0105134
0.0104801
0.010447
0.010414
0.0103811
0.0103484
0.0103157
0.0102832
0.0102507
0.0102184
0.0101862
0.0101542
0.0101222
0.0100904
0.0100586
0.010027
0.00999553
0.00996415
0.00993289
0.00990174
0.00987071
0.0098398
0.00980901
0.00977833
0.00974778
0.00971734
0.00968702
0.00965682
0.00962673
0.00959677
0.00956692
0.0095372
0.00950759
0.00947811
0.00944874
0.00941949
0.00939037
0.00936136
0.00933248
0.00930372
0.00927508
0.00924656
0.00921816
0.00918989
0.00916174
0.00913371
0.0091058
0.00907802
0.00905036
0.00902283
0.00899541
0.00896813
0.00894097
0.00891393
0.00888702
0.00886023
0.00883357
0.00880704
0.00878063
0.00875435
0.00872819
0.00870217
0.00867627
0.0086505
0.00862485
0.00859934
0.00857395
0.0085487
0.00852357
0.00849857
0.00847371
0.00844897
0.00842437
0.00839989
0.00837555
0.00835134
0.00832726
0.00830332
0.0082795
0.00825582
0.00823228
0.00820887
0.00818559
0.00816245
0.00813944
0.00811657
0.00809383
0.00807123
0.00804876
0.00802644
0.00800425
0.00798219
0.00796028
0.0079385
0.00791687
0.00789537
0.00787401
0.00785279
0.00783171
0.00781077
0.00778997
0.00776932
0.0077488
0.00772843
0.0077082
0.00768811
0.00766817
0.00764837
0.00762871
0.0076092
0.00758983
0.00757061
0.00755153
0.0075326
0.00751381
0.00749517
0.00747668
0.00745834
0.00744014
0.00742209
0.00740419
0.00738644
0.00736884
0.00735139
0.00733409
0.00731694
0.00729994
0.00728309
0.00726639
0.00724984
0.00723345
0.0072172
0.00720112
0.00718518
0.0071694
0.00715377
0.0071383
0.00712298
0.00710781
0.0070928
0.00707795
0.00706325
0.00704871
0.00703433
0.0070201
0.00700603
0.00699212
0.00697836
0.00696477
0.00695133
0.00693805
0.00692493
0.00691197
0.00689917
0.00688653
0.00687404
0.00686172
0.00684957
0.00683757
0.00682573
0.00681405
0.00680254
0.00679119
0.00678
0.00676897
0.00675811
0.00674741
0.00673687
0.00672649
0.00671628
0.00670624
0.00669635
0.00668663
0.00667708
0.00666769
0.00665846
0.0066494
0.00664051
0.00663177
0.00662321
0.00661481
0.00660657
0.0065985
0.0065906
0.00658286
0.00657529
0.00656788
0.00656064
0.00655357
0.00654666
0.00653992
0.00653334
0.00652693
0.00652069
0.00651461
0.0065087
0.00650295
0.00649738
0.00649196
0.00648672
0.00648164
0.00647672
0.00647198
0.00646739
0.00646298
0.00645873
0.00645464
0.00645072
0.00644697
0.00644338
0.00643996
0.0064367
0.00643361
0.00643068
0.00642792
0.00642532
0.00642288