/*--------------------------------*- C++ -*----------------------------------*\
| =========                 |                                                 |
| \\      /  F ield         | foam-extend: Open Source CFD                    |
|  \\    /   O peration     | Version:     5.0                                |
|   \\  /    A nd           | Web:         http://www.foam-extend.org         |
|    \\/     M anipulation  |                                                 |
\*---------------------------------------------------------------------------*/
FoamFile
{
    version     2.0;
    format      ascii;
    class       volVectorField;
    location    "15000";
    object      U.gas;
}
// * * * * * * * * * * * * * * * * * * * * * * * * * * * * * * * * * * * * * //

dimensions      [0 1 -1 0 0 0 0];

internalField   nonuniform List<vector> 
1500
(
(0 3.04863e-09 0)
(0 1.15788e-08 0)
(0 2.51802e-08 0)
(0 4.57854e-08 0)
(0 8.2653e-08 0)
(0 1.26716e-07 0)
(0 1.63001e-07 0)
(0 1.91613e-07 0)
(0 2.17563e-07 0)
(0 2.42327e-07 0)
(0 2.66461e-07 0)
(0 2.90226e-07 0)
(0 3.13758e-07 0)
(0 3.37135e-07 0)
(0 3.60401e-07 0)
(0 3.83586e-07 0)
(0 4.06707e-07 0)
(0 4.29779e-07 0)
(0 4.5281e-07 0)
(0 4.75806e-07 0)
(0 4.98772e-07 0)
(0 5.21712e-07 0)
(0 5.4463e-07 0)
(0 5.67527e-07 0)
(0 5.90406e-07 0)
(0 6.13268e-07 0)
(0 6.36115e-07 0)
(0 6.58947e-07 0)
(0 6.81766e-07 0)
(0 7.04574e-07 0)
(0 7.27369e-07 0)
(0 7.50154e-07 0)
(0 7.7293e-07 0)
(0 7.95695e-07 0)
(0 8.18452e-07 0)
(0 8.41201e-07 0)
(0 8.63941e-07 0)
(0 8.86674e-07 0)
(0 9.094e-07 0)
(0 9.32119e-07 0)
(0 9.54832e-07 0)
(0 9.77539e-07 0)
(0 1.00024e-06 0)
(0 1.02293e-06 0)
(0 1.04562e-06 0)
(0 1.06831e-06 0)
(0 1.09099e-06 0)
(0 1.11366e-06 0)
(0 1.13633e-06 0)
(0 1.159e-06 0)
(0 1.18166e-06 0)
(0 1.20432e-06 0)
(0 1.22697e-06 0)
(0 1.24963e-06 0)
(0 1.27227e-06 0)
(0 1.29492e-06 0)
(0 1.31756e-06 0)
(0 1.34019e-06 0)
(0 1.36283e-06 0)
(0 1.38546e-06 0)
(0 1.40808e-06 0)
(0 1.43071e-06 0)
(0 1.45333e-06 0)
(0 1.47595e-06 0)
(0 1.49857e-06 0)
(0 1.52118e-06 0)
(0 1.54379e-06 0)
(0 1.5664e-06 0)
(0 1.58901e-06 0)
(0 1.61162e-06 0)
(0 1.63422e-06 0)
(0 1.65682e-06 0)
(0 1.67942e-06 0)
(0 1.70201e-06 0)
(0 1.72461e-06 0)
(0 1.7472e-06 0)
(0 1.76979e-06 0)
(0 1.79238e-06 0)
(0 1.81497e-06 0)
(0 1.83756e-06 0)
(0 1.86014e-06 0)
(0 1.88272e-06 0)
(0 1.9053e-06 0)
(0 1.92788e-06 0)
(0 1.95046e-06 0)
(0 1.97304e-06 0)
(0 1.99561e-06 0)
(0 2.01819e-06 0)
(0 2.04076e-06 0)
(0 2.06333e-06 0)
(0 2.0859e-06 0)
(0 2.10847e-06 0)
(0 2.13103e-06 0)
(0 2.1536e-06 0)
(0 2.17616e-06 0)
(0 2.19873e-06 0)
(0 2.22129e-06 0)
(0 2.24385e-06 0)
(0 2.26641e-06 0)
(0 2.28897e-06 0)
(0 2.31153e-06 0)
(0 2.33408e-06 0)
(0 2.35664e-06 0)
(0 2.37919e-06 0)
(0 2.40175e-06 0)
(0 2.4243e-06 0)
(0 2.44685e-06 0)
(0 2.4694e-06 0)
(0 2.49195e-06 0)
(0 2.5145e-06 0)
(0 2.53705e-06 0)
(0 2.5596e-06 0)
(0 2.58214e-06 0)
(0 2.60469e-06 0)
(0 2.62723e-06 0)
(0 2.64978e-06 0)
(0 2.67232e-06 0)
(0 2.69486e-06 0)
(0 2.7174e-06 0)
(0 2.73994e-06 0)
(0 2.76248e-06 0)
(0 2.78502e-06 0)
(0 2.80756e-06 0)
(0 2.8301e-06 0)
(0 2.85263e-06 0)
(0 2.87517e-06 0)
(0 2.89771e-06 0)
(0 2.92024e-06 0)
(0 2.94278e-06 0)
(0 2.96531e-06 0)
(0 2.98784e-06 0)
(0 3.01038e-06 0)
(0 3.03291e-06 0)
(0 3.05544e-06 0)
(0 3.07797e-06 0)
(0 3.1005e-06 0)
(0 3.12303e-06 0)
(0 3.14556e-06 0)
(0 3.16809e-06 0)
(0 3.19061e-06 0)
(0 3.21314e-06 0)
(0 3.23567e-06 0)
(0 3.25819e-06 0)
(0 3.28072e-06 0)
(0 3.30324e-06 0)
(0 3.32577e-06 0)
(0 3.34829e-06 0)
(0 3.37081e-06 0)
(0 3.39334e-06 0)
(0 3.41586e-06 0)
(0 3.43838e-06 0)
(0 3.4609e-06 0)
(0 3.48342e-06 0)
(0 3.50595e-06 0)
(0 3.52847e-06 0)
(0 3.55099e-06 0)
(0 3.5735e-06 0)
(0 3.59602e-06 0)
(0 3.61854e-06 0)
(0 3.64106e-06 0)
(0 3.66358e-06 0)
(0 3.68609e-06 0)
(0 3.70861e-06 0)
(0 3.73113e-06 0)
(0 3.75364e-06 0)
(0 3.77616e-06 0)
(0 3.79867e-06 0)
(0 3.82119e-06 0)
(0 3.8437e-06 0)
(0 3.86622e-06 0)
(0 3.88873e-06 0)
(0 3.91124e-06 0)
(0 3.93376e-06 0)
(0 3.95627e-06 0)
(0 3.97878e-06 0)
(0 4.00129e-06 0)
(0 4.0238e-06 0)
(0 4.04631e-06 0)
(0 4.06883e-06 0)
(0 4.09134e-06 0)
(0 4.11385e-06 0)
(0 4.13636e-06 0)
(0 4.15887e-06 0)
(0 4.18137e-06 0)
(0 4.20388e-06 0)
(0 4.22639e-06 0)
(0 4.2489e-06 0)
(0 4.27141e-06 0)
(0 4.29391e-06 0)
(0 4.31642e-06 0)
(0 4.33893e-06 0)
(0 4.36144e-06 0)
(0 4.38394e-06 0)
(0 4.40645e-06 0)
(0 4.42895e-06 0)
(0 4.45146e-06 0)
(0 4.47396e-06 0)
(0 4.49647e-06 0)
(0 4.51897e-06 0)
(0 4.54148e-06 0)
(0 4.56398e-06 0)
(0 4.58649e-06 0)
(0 4.60899e-06 0)
(0 4.63149e-06 0)
(0 4.65399e-06 0)
(0 4.6765e-06 0)
(0 4.699e-06 0)
(0 4.7215e-06 0)
(0 4.744e-06 0)
(0 4.76651e-06 0)
(0 4.78901e-06 0)
(0 4.81151e-06 0)
(0 4.83401e-06 0)
(0 4.85651e-06 0)
(0 4.87901e-06 0)
(0 4.90151e-06 0)
(0 4.92401e-06 0)
(0 4.94651e-06 0)
(0 4.96901e-06 0)
(0 4.99151e-06 0)
(0 5.01401e-06 0)
(0 5.03651e-06 0)
(0 5.05901e-06 0)
(0 5.0815e-06 0)
(0 5.104e-06 0)
(0 5.1265e-06 0)
(0 5.149e-06 0)
(0 5.1715e-06 0)
(0 5.19399e-06 0)
(0 5.21649e-06 0)
(0 5.23899e-06 0)
(0 5.26149e-06 0)
(0 5.28398e-06 0)
(0 5.30648e-06 0)
(0 5.32897e-06 0)
(0 5.35147e-06 0)
(0 5.37397e-06 0)
(0 5.39646e-06 0)
(0 5.41896e-06 0)
(0 5.44145e-06 0)
(0 5.46394e-06 0)
(0 5.48608e-06 0)
(0 5.45954e-06 0)
(0 2.38393e-06 0)
(0 -6.14401e-09 0)
(0 -8.8717e-08 0)
(0 -1.13236e-07 0)
(0 -1.24999e-07 0)
(0 -1.31906e-07 0)
(0 -1.36448e-07 0)
(0 -1.39663e-07 0)
(0 -1.42057e-07 0)
(0 -1.4391e-07 0)
(0 -1.45386e-07 0)
(0 -1.46589e-07 0)
(0 -1.47589e-07 0)
(0 -1.48432e-07 0)
(0 -1.49153e-07 0)
(0 -1.49777e-07 0)
(0 -1.50322e-07 0)
(0 -1.50802e-07 0)
(0 -1.51228e-07 0)
(0 -1.51609e-07 0)
(0 -1.51951e-07 0)
(0 -1.52259e-07 0)
(0 -1.52539e-07 0)
(0 -1.52795e-07 0)
(0 -1.53029e-07 0)
(0 -1.53244e-07 0)
(0 -1.53442e-07 0)
(0 -1.53626e-07 0)
(0 -1.53796e-07 0)
(0 -1.53954e-07 0)
(0 -1.54101e-07 0)
(0 -1.54239e-07 0)
(0 -1.54367e-07 0)
(0 -1.54488e-07 0)
(0 -1.54601e-07 0)
(0 -1.54707e-07 0)
(0 -1.54808e-07 0)
(0 -1.54903e-07 0)
(0 -1.54993e-07 0)
(0 -1.55077e-07 0)
(0 -1.55156e-07 0)
(0 -1.55233e-07 0)
(0 -1.55306e-07 0)
(0 -1.55374e-07 0)
(0 -1.5544e-07 0)
(0 -1.55503e-07 0)
(0 -1.55563e-07 0)
(0 -1.5562e-07 0)
(0 -1.55674e-07 0)
(0 -1.55727e-07 0)
(0 -1.55777e-07 0)
(0 -1.55825e-07 0)
(0 -1.55871e-07 0)
(0 -1.55916e-07 0)
(0 -1.55958e-07 0)
(0 -1.55998e-07 0)
(0 -1.56038e-07 0)
(0 -1.56076e-07 0)
(0 -1.56112e-07 0)
(0 -1.56146e-07 0)
(0 -1.5618e-07 0)
(0 -1.56212e-07 0)
(0 -1.56244e-07 0)
(0 -1.56274e-07 0)
(0 -1.56303e-07 0)
(0 -1.56331e-07 0)
(0 -1.56358e-07 0)
(0 -1.56384e-07 0)
(0 -1.5641e-07 0)
(0 -1.56434e-07 0)
(0 -1.56457e-07 0)
(0 -1.56479e-07 0)
(0 -1.56501e-07 0)
(0 -1.56523e-07 0)
(0 -1.56543e-07 0)
(0 -1.56562e-07 0)
(0 -1.56581e-07 0)
(0 -1.566e-07 0)
(0 -1.56619e-07 0)
(0 -1.56637e-07 0)
(0 -1.56654e-07 0)
(0 -1.5667e-07 0)
(0 -1.56685e-07 0)
(0 -1.567e-07 0)
(0 -1.56715e-07 0)
(0 -1.56729e-07 0)
(0 -1.56743e-07 0)
(0 -1.56757e-07 0)
(0 -1.5677e-07 0)
(0 -1.56783e-07 0)
(0 -1.56795e-07 0)
(0 -1.56806e-07 0)
(0 -1.56817e-07 0)
(0 -1.56827e-07 0)
(0 -1.56837e-07 0)
(0 -1.56847e-07 0)
(0 -1.56858e-07 0)
(0 -1.56868e-07 0)
(0 -1.56876e-07 0)
(0 -1.56885e-07 0)
(0 -1.56893e-07 0)
(0 -1.56902e-07 0)
(0 -1.5691e-07 0)
(0 -1.56919e-07 0)
(0 -1.56926e-07 0)
(0 -1.56932e-07 0)
(0 -1.56939e-07 0)
(0 -1.56945e-07 0)
(0 -1.5695e-07 0)
(0 -1.56956e-07 0)
(0 -1.56961e-07 0)
(0 -1.56966e-07 0)
(0 -1.56971e-07 0)
(0 -1.56977e-07 0)
(0 -1.56982e-07 0)
(0 -1.56988e-07 0)
(0 -1.56992e-07 0)
(0 -1.56996e-07 0)
(0 -1.57001e-07 0)
(0 -1.57005e-07 0)
(0 -1.57008e-07 0)
(0 -1.57011e-07 0)
(0 -1.57014e-07 0)
(0 -1.57017e-07 0)
(0 -1.5702e-07 0)
(0 -1.57022e-07 0)
(0 -1.57025e-07 0)
(0 -1.57028e-07 0)
(0 -1.5703e-07 0)
(0 -1.57033e-07 0)
(0 -1.57035e-07 0)
(0 -1.57036e-07 0)
(0 -1.57038e-07 0)
(0 -1.57039e-07 0)
(0 -1.57041e-07 0)
(0 -1.57041e-07 0)
(0 -1.57043e-07 0)
(0 -1.57044e-07 0)
(0 -1.57043e-07 0)
(0 -1.57043e-07 0)
(0 -1.57044e-07 0)
(0 -1.57044e-07 0)
(0 -1.57043e-07 0)
(0 -1.57043e-07 0)
(0 -1.57042e-07 0)
(0 -1.57042e-07 0)
(0 -1.5704e-07 0)
(0 -1.57039e-07 0)
(0 -1.57038e-07 0)
(0 -1.57037e-07 0)
(0 -1.57036e-07 0)
(0 -1.57035e-07 0)
(0 -1.57034e-07 0)
(0 -1.57032e-07 0)
(0 -1.5703e-07 0)
(0 -1.57029e-07 0)
(0 -1.57027e-07 0)
(0 -1.57025e-07 0)
(0 -1.57022e-07 0)
(0 -1.5702e-07 0)
(0 -1.57018e-07 0)
(0 -1.57016e-07 0)
(0 -1.57013e-07 0)
(0 -1.57011e-07 0)
(0 -1.57007e-07 0)
(0 -1.57005e-07 0)
(0 -1.57002e-07 0)
(0 -1.56998e-07 0)
(0 -1.56995e-07 0)
(0 -1.56992e-07 0)
(0 -1.56988e-07 0)
(0 -1.56985e-07 0)
(0 -1.56982e-07 0)
(0 -1.56978e-07 0)
(0 -1.56975e-07 0)
(0 -1.56972e-07 0)
(0 -1.56967e-07 0)
(0 -1.56962e-07 0)
(0 -1.56959e-07 0)
(0 -1.56954e-07 0)
(0 -1.5695e-07 0)
(0 -1.56945e-07 0)
(0 -1.5694e-07 0)
(0 -1.56935e-07 0)
(0 -1.5693e-07 0)
(0 -1.56925e-07 0)
(0 -1.56919e-07 0)
(0 -1.56913e-07 0)
(0 -1.56907e-07 0)
(0 -1.56901e-07 0)
(0 -1.56896e-07 0)
(0 -1.5689e-07 0)
(0 -1.56884e-07 0)
(0 -1.56879e-07 0)
(0 -1.56873e-07 0)
(0 -1.56867e-07 0)
(0 -1.56861e-07 0)
(0 -1.56854e-07 0)
(0 -1.56847e-07 0)
(0 -1.5684e-07 0)
(0 -1.56833e-07 0)
(0 -1.56825e-07 0)
(0 -1.56819e-07 0)
(0 -1.56812e-07 0)
(0 -1.56804e-07 0)
(0 -1.56797e-07 0)
(0 -1.5679e-07 0)
(0 -1.56783e-07 0)
(0 -1.56777e-07 0)
(0 -1.56769e-07 0)
(0 -1.56762e-07 0)
(0 -1.56755e-07 0)
(0 -1.56748e-07 0)
(0 -1.56739e-07 0)
(0 -1.56731e-07 0)
(0 -1.56722e-07 0)
(0 -1.56713e-07 0)
(0 -1.56705e-07 0)
(0 -1.56696e-07 0)
(0 -1.56687e-07 0)
(0 -1.56679e-07 0)
(0 -1.56671e-07 0)
(0 -1.56662e-07 0)
(0 -1.56654e-07 0)
(0 -1.56646e-07 0)
(0 -1.56636e-07 0)
(0 -1.56626e-07 0)
(0 -1.56616e-07 0)
(0 -1.56607e-07 0)
(0 -1.56597e-07 0)
(0 -1.56587e-07 0)
(0 -1.56577e-07 0)
(0 -1.56568e-07 0)
(0 -1.56558e-07 0)
(0 -1.56549e-07 0)
(0 -1.56539e-07 0)
(0 -1.56529e-07 0)
(0 -1.56518e-07 0)
(0 -1.56507e-07 0)
(0 -1.56497e-07 0)
(0 -1.56487e-07 0)
(0 -1.56476e-07 0)
(0 -1.56465e-07 0)
(0 -1.56454e-07 0)
(0 -1.56443e-07 0)
(0 -1.56432e-07 0)
(0 -1.56421e-07 0)
(0 -1.5641e-07 0)
(0 -1.56398e-07 0)
(0 -1.56387e-07 0)
(0 -1.56375e-07 0)
(0 -1.56363e-07 0)
(0 -1.56351e-07 0)
(0 -1.56339e-07 0)
(0 -1.56326e-07 0)
(0 -1.56314e-07 0)
(0 -1.56302e-07 0)
(0 -1.5629e-07 0)
(0 -1.56277e-07 0)
(0 -1.56264e-07 0)
(0 -1.56252e-07 0)
(0 -1.56238e-07 0)
(0 -1.56224e-07 0)
(0 -1.56211e-07 0)
(0 -1.56198e-07 0)
(0 -1.56186e-07 0)
(0 -1.56174e-07 0)
(0 -1.5616e-07 0)
(0 -1.56147e-07 0)
(0 -1.56135e-07 0)
(0 -1.56121e-07 0)
(0 -1.56107e-07 0)
(0 -1.56094e-07 0)
(0 -1.56081e-07 0)
(0 -1.56069e-07 0)
(0 -1.56054e-07 0)
(0 -1.5604e-07 0)
(0 -1.56026e-07 0)
(0 -1.56011e-07 0)
(0 -1.55997e-07 0)
(0 -1.55982e-07 0)
(0 -1.55969e-07 0)
(0 -1.55954e-07 0)
(0 -1.55938e-07 0)
(0 -1.55923e-07 0)
(0 -1.55908e-07 0)
(0 -1.55891e-07 0)
(0 -1.55877e-07 0)
(0 -1.55863e-07 0)
(0 -1.55846e-07 0)
(0 -1.55831e-07 0)
(0 -1.55817e-07 0)
(0 -1.55802e-07 0)
(0 -1.55786e-07 0)
(0 -1.55771e-07 0)
(0 -1.55754e-07 0)
(0 -1.55736e-07 0)
(0 -1.55719e-07 0)
(0 -1.55703e-07 0)
(0 -1.55686e-07 0)
(0 -1.5567e-07 0)
(0 -1.55654e-07 0)
(0 -1.55638e-07 0)
(0 -1.5562e-07 0)
(0 -1.55604e-07 0)
(0 -1.55587e-07 0)
(0 -1.5557e-07 0)
(0 -1.55553e-07 0)
(0 -1.55536e-07 0)
(0 -1.5552e-07 0)
(0 -1.55502e-07 0)
(0 -1.55485e-07 0)
(0 -1.55468e-07 0)
(0 -1.55448e-07 0)
(0 -1.55428e-07 0)
(0 -1.5541e-07 0)
(0 -1.55393e-07 0)
(0 -1.55375e-07 0)
(0 -1.55356e-07 0)
(0 -1.55338e-07 0)
(0 -1.55319e-07 0)
(0 -1.55301e-07 0)
(0 -1.55283e-07 0)
(0 -1.55263e-07 0)
(0 -1.55243e-07 0)
(0 -1.55224e-07 0)
(0 -1.55203e-07 0)
(0 -1.55182e-07 0)
(0 -1.55162e-07 0)
(0 -1.55141e-07 0)
(0 -1.55122e-07 0)
(0 -1.55102e-07 0)
(0 -1.5508e-07 0)
(0 -1.55061e-07 0)
(0 -1.55041e-07 0)
(0 -1.55018e-07 0)
(0 -1.54997e-07 0)
(0 -1.54976e-07 0)
(0 -1.54955e-07 0)
(0 -1.54935e-07 0)
(0 -1.54915e-07 0)
(0 -1.54892e-07 0)
(0 -1.5487e-07 0)
(0 -1.54849e-07 0)
(0 -1.54826e-07 0)
(0 -1.54803e-07 0)
(0 -1.54783e-07 0)
(0 -1.54761e-07 0)
(0 -1.54739e-07 0)
(0 -1.54717e-07 0)
(0 -1.54694e-07 0)
(0 -1.54671e-07 0)
(0 -1.54648e-07 0)
(0 -1.54626e-07 0)
(0 -1.54604e-07 0)
(0 -1.54581e-07 0)
(0 -1.54558e-07 0)
(0 -1.54535e-07 0)
(0 -1.54512e-07 0)
(0 -1.54488e-07 0)
(0 -1.54464e-07 0)
(0 -1.54441e-07 0)
(0 -1.54418e-07 0)
(0 -1.54394e-07 0)
(0 -1.54371e-07 0)
(0 -1.54346e-07 0)
(0 -1.5432e-07 0)
(0 -1.54296e-07 0)
(0 -1.5427e-07 0)
(0 -1.54245e-07 0)
(0 -1.5422e-07 0)
(0 -1.54194e-07 0)
(0 -1.54169e-07 0)
(0 -1.54143e-07 0)
(0 -1.54117e-07 0)
(0 -1.54092e-07 0)
(0 -1.54067e-07 0)
(0 -1.54042e-07 0)
(0 -1.54017e-07 0)
(0 -1.53992e-07 0)
(0 -1.53966e-07 0)
(0 -1.5394e-07 0)
(0 -1.53914e-07 0)
(0 -1.53887e-07 0)
(0 -1.53861e-07 0)
(0 -1.53833e-07 0)
(0 -1.53806e-07 0)
(0 -1.53779e-07 0)
(0 -1.53751e-07 0)
(0 -1.53724e-07 0)
(0 -1.53695e-07 0)
(0 -1.53665e-07 0)
(0 -1.53637e-07 0)
(0 -1.5361e-07 0)
(0 -1.53582e-07 0)
(0 -1.53554e-07 0)
(0 -1.53525e-07 0)
(0 -1.53497e-07 0)
(0 -1.53469e-07 0)
(0 -1.5344e-07 0)
(0 -1.53411e-07 0)
(0 -1.53381e-07 0)
(0 -1.53353e-07 0)
(0 -1.53325e-07 0)
(0 -1.53295e-07 0)
(0 -1.53265e-07 0)
(0 -1.53234e-07 0)
(0 -1.53205e-07 0)
(0 -1.53176e-07 0)
(0 -1.53145e-07 0)
(0 -1.53116e-07 0)
(0 -1.53086e-07 0)
(0 -1.53055e-07 0)
(0 -1.53024e-07 0)
(0 -1.52992e-07 0)
(0 -1.5296e-07 0)
(0 -1.52928e-07 0)
(0 -1.52896e-07 0)
(0 -1.52865e-07 0)
(0 -1.52833e-07 0)
(0 -1.52802e-07 0)
(0 -1.52769e-07 0)
(0 -1.52736e-07 0)
(0 -1.52704e-07 0)
(0 -1.52671e-07 0)
(0 -1.52637e-07 0)
(0 -1.52604e-07 0)
(0 -1.5257e-07 0)
(0 -1.52537e-07 0)
(0 -1.52502e-07 0)
(0 -1.52467e-07 0)
(0 -1.52434e-07 0)
(0 -1.52401e-07 0)
(0 -1.52368e-07 0)
(0 -1.52333e-07 0)
(0 -1.52299e-07 0)
(0 -1.52265e-07 0)
(0 -1.52231e-07 0)
(0 -1.52196e-07 0)
(0 -1.5216e-07 0)
(0 -1.52124e-07 0)
(0 -1.52088e-07 0)
(0 -1.52053e-07 0)
(0 -1.52017e-07 0)
(0 -1.5198e-07 0)
(0 -1.51943e-07 0)
(0 -1.51907e-07 0)
(0 -1.51872e-07 0)
(0 -1.51835e-07 0)
(0 -1.51798e-07 0)
(0 -1.51761e-07 0)
(0 -1.51724e-07 0)
(0 -1.51687e-07 0)
(0 -1.51649e-07 0)
(0 -1.5161e-07 0)
(0 -1.51572e-07 0)
(0 -1.51535e-07 0)
(0 -1.51498e-07 0)
(0 -1.51461e-07 0)
(0 -1.51422e-07 0)
(0 -1.51381e-07 0)
(0 -1.51343e-07 0)
(0 -1.51304e-07 0)
(0 -1.51265e-07 0)
(0 -1.51225e-07 0)
(0 -1.51184e-07 0)
(0 -1.51144e-07 0)
(0 -1.51104e-07 0)
(0 -1.51063e-07 0)
(0 -1.51024e-07 0)
(0 -1.50985e-07 0)
(0 -1.50944e-07 0)
(0 -1.50902e-07 0)
(0 -1.5086e-07 0)
(0 -1.50819e-07 0)
(0 -1.5078e-07 0)
(0 -1.50739e-07 0)
(0 -1.50695e-07 0)
(0 -1.50653e-07 0)
(0 -1.50611e-07 0)
(0 -1.50569e-07 0)
(0 -1.50527e-07 0)
(0 -1.50484e-07 0)
(0 -1.50442e-07 0)
(0 -1.50398e-07 0)
(0 -1.50354e-07 0)
(0 -1.5031e-07 0)
(0 -1.50268e-07 0)
(0 -1.50223e-07 0)
(0 -1.50179e-07 0)
(0 -1.50134e-07 0)
(0 -1.50089e-07 0)
(0 -1.50043e-07 0)
(0 -1.49998e-07 0)
(0 -1.49952e-07 0)
(0 -1.49907e-07 0)
(0 -1.49862e-07 0)
(0 -1.49816e-07 0)
(0 -1.49769e-07 0)
(0 -1.49723e-07 0)
(0 -1.49677e-07 0)
(0 -1.49631e-07 0)
(0 -1.49584e-07 0)
(0 -1.49537e-07 0)
(0 -1.49491e-07 0)
(0 -1.49444e-07 0)
(0 -1.49397e-07 0)
(0 -1.49348e-07 0)
(0 -1.493e-07 0)
(0 -1.49252e-07 0)
(0 -1.49204e-07 0)
(0 -1.49154e-07 0)
(0 -1.49106e-07 0)
(0 -1.49059e-07 0)
(0 -1.49011e-07 0)
(0 -1.48962e-07 0)
(0 -1.48913e-07 0)
(0 -1.48864e-07 0)
(0 -1.48815e-07 0)
(0 -1.48765e-07 0)
(0 -1.48715e-07 0)
(0 -1.48665e-07 0)
(0 -1.48615e-07 0)
(0 -1.48564e-07 0)
(0 -1.48512e-07 0)
(0 -1.48461e-07 0)
(0 -1.48409e-07 0)
(0 -1.48356e-07 0)
(0 -1.48303e-07 0)
(0 -1.48252e-07 0)
(0 -1.482e-07 0)
(0 -1.48147e-07 0)
(0 -1.48094e-07 0)
(0 -1.48041e-07 0)
(0 -1.47988e-07 0)
(0 -1.47936e-07 0)
(0 -1.47881e-07 0)
(0 -1.47827e-07 0)
(0 -1.47773e-07 0)
(0 -1.47719e-07 0)
(0 -1.47664e-07 0)
(0 -1.47608e-07 0)
(0 -1.47553e-07 0)
(0 -1.47498e-07 0)
(0 -1.47444e-07 0)
(0 -1.47388e-07 0)
(0 -1.47332e-07 0)
(0 -1.47275e-07 0)
(0 -1.47219e-07 0)
(0 -1.47162e-07 0)
(0 -1.47105e-07 0)
(0 -1.47049e-07 0)
(0 -1.46991e-07 0)
(0 -1.46934e-07 0)
(0 -1.46876e-07 0)
(0 -1.46817e-07 0)
(0 -1.4676e-07 0)
(0 -1.46702e-07 0)
(0 -1.46642e-07 0)
(0 -1.46583e-07 0)
(0 -1.46523e-07 0)
(0 -1.46463e-07 0)
(0 -1.46404e-07 0)
(0 -1.46344e-07 0)
(0 -1.46284e-07 0)
(0 -1.46224e-07 0)
(0 -1.46163e-07 0)
(0 -1.46102e-07 0)
(0 -1.46042e-07 0)
(0 -1.45981e-07 0)
(0 -1.4592e-07 0)
(0 -1.45857e-07 0)
(0 -1.45795e-07 0)
(0 -1.45731e-07 0)
(0 -1.45668e-07 0)
(0 -1.45605e-07 0)
(0 -1.45542e-07 0)
(0 -1.45479e-07 0)
(0 -1.45415e-07 0)
(0 -1.45351e-07 0)
(0 -1.45286e-07 0)
(0 -1.45221e-07 0)
(0 -1.45156e-07 0)
(0 -1.45091e-07 0)
(0 -1.45026e-07 0)
(0 -1.4496e-07 0)
(0 -1.44894e-07 0)
(0 -1.44828e-07 0)
(0 -1.44762e-07 0)
(0 -1.44695e-07 0)
(0 -1.44628e-07 0)
(0 -1.44559e-07 0)
(0 -1.44492e-07 0)
(0 -1.44426e-07 0)
(0 -1.44358e-07 0)
(0 -1.44289e-07 0)
(0 -1.44221e-07 0)
(0 -1.44153e-07 0)
(0 -1.44083e-07 0)
(0 -1.44014e-07 0)
(0 -1.43945e-07 0)
(0 -1.43875e-07 0)
(0 -1.43804e-07 0)
(0 -1.43734e-07 0)
(0 -1.43663e-07 0)
(0 -1.43592e-07 0)
(0 -1.4352e-07 0)
(0 -1.43448e-07 0)
(0 -1.43378e-07 0)
(0 -1.43306e-07 0)
(0 -1.43232e-07 0)
(0 -1.43159e-07 0)
(0 -1.43087e-07 0)
(0 -1.43013e-07 0)
(0 -1.42938e-07 0)
(0 -1.42864e-07 0)
(0 -1.4279e-07 0)
(0 -1.42714e-07 0)
(0 -1.42639e-07 0)
(0 -1.42565e-07 0)
(0 -1.42491e-07 0)
(0 -1.42416e-07 0)
(0 -1.4234e-07 0)
(0 -1.42264e-07 0)
(0 -1.42187e-07 0)
(0 -1.42109e-07 0)
(0 -1.42033e-07 0)
(0 -1.41956e-07 0)
(0 -1.41878e-07 0)
(0 -1.41799e-07 0)
(0 -1.41721e-07 0)
(0 -1.41643e-07 0)
(0 -1.41564e-07 0)
(0 -1.41485e-07 0)
(0 -1.41407e-07 0)
(0 -1.41327e-07 0)
(0 -1.41247e-07 0)
(0 -1.41168e-07 0)
(0 -1.41088e-07 0)
(0 -1.41005e-07 0)
(0 -1.40924e-07 0)
(0 -1.40842e-07 0)
(0 -1.4076e-07 0)
(0 -1.40679e-07 0)
(0 -1.40598e-07 0)
(0 -1.40515e-07 0)
(0 -1.40431e-07 0)
(0 -1.40346e-07 0)
(0 -1.40263e-07 0)
(0 -1.40181e-07 0)
(0 -1.40097e-07 0)
(0 -1.40012e-07 0)
(0 -1.39926e-07 0)
(0 -1.39842e-07 0)
(0 -1.39757e-07 0)
(0 -1.39671e-07 0)
(0 -1.39584e-07 0)
(0 -1.39497e-07 0)
(0 -1.39411e-07 0)
(0 -1.39324e-07 0)
(0 -1.39236e-07 0)
(0 -1.39148e-07 0)
(0 -1.3906e-07 0)
(0 -1.38972e-07 0)
(0 -1.38883e-07 0)
(0 -1.38795e-07 0)
(0 -1.38705e-07 0)
(0 -1.38614e-07 0)
(0 -1.38523e-07 0)
(0 -1.38432e-07 0)
(0 -1.38341e-07 0)
(0 -1.38251e-07 0)
(0 -1.3816e-07 0)
(0 -1.38067e-07 0)
(0 -1.37975e-07 0)
(0 -1.37882e-07 0)
(0 -1.37788e-07 0)
(0 -1.37695e-07 0)
(0 -1.37602e-07 0)
(0 -1.3751e-07 0)
(0 -1.37416e-07 0)
(0 -1.37321e-07 0)
(0 -1.37226e-07 0)
(0 -1.37129e-07 0)
(0 -1.37035e-07 0)
(0 -1.36939e-07 0)
(0 -1.36843e-07 0)
(0 -1.36749e-07 0)
(0 -1.36652e-07 0)
(0 -1.36554e-07 0)
(0 -1.36455e-07 0)
(0 -1.36357e-07 0)
(0 -1.36259e-07 0)
(0 -1.3616e-07 0)
(0 -1.3606e-07 0)
(0 -1.35961e-07 0)
(0 -1.35862e-07 0)
(0 -1.35763e-07 0)
(0 -1.35662e-07 0)
(0 -1.3556e-07 0)
(0 -1.35458e-07 0)
(0 -1.35356e-07 0)
(0 -1.35254e-07 0)
(0 -1.35151e-07 0)
(0 -1.35047e-07 0)
(0 -1.34942e-07 0)
(0 -1.34838e-07 0)
(0 -1.34733e-07 0)
(0 -1.34628e-07 0)
(0 -1.34523e-07 0)
(0 -1.34417e-07 0)
(0 -1.34313e-07 0)
(0 -1.34209e-07 0)
(0 -1.34103e-07 0)
(0 -1.33997e-07 0)
(0 -1.33891e-07 0)
(0 -1.33784e-07 0)
(0 -1.33678e-07 0)
(0 -1.33571e-07 0)
(0 -1.33461e-07 0)
(0 -1.33352e-07 0)
(0 -1.33243e-07 0)
(0 -1.33131e-07 0)
(0 -1.33019e-07 0)
(0 -1.32908e-07 0)
(0 -1.32797e-07 0)
(0 -1.32686e-07 0)
(0 -1.32574e-07 0)
(0 -1.3246e-07 0)
(0 -1.32345e-07 0)
(0 -1.32231e-07 0)
(0 -1.32118e-07 0)
(0 -1.32005e-07 0)
(0 -1.31891e-07 0)
(0 -1.31777e-07 0)
(0 -1.31659e-07 0)
(0 -1.31542e-07 0)
(0 -1.31424e-07 0)
(0 -1.31306e-07 0)
(0 -1.31188e-07 0)
(0 -1.31069e-07 0)
(0 -1.3095e-07 0)
(0 -1.3083e-07 0)
(0 -1.3071e-07 0)
(0 -1.30592e-07 0)
(0 -1.30474e-07 0)
(0 -1.30353e-07 0)
(0 -1.30232e-07 0)
(0 -1.30112e-07 0)
(0 -1.29992e-07 0)
(0 -1.29871e-07 0)
(0 -1.2975e-07 0)
(0 -1.29629e-07 0)
(0 -1.29505e-07 0)
(0 -1.29379e-07 0)
(0 -1.29254e-07 0)
(0 -1.2913e-07 0)
(0 -1.29005e-07 0)
(0 -1.28882e-07 0)
(0 -1.28756e-07 0)
(0 -1.28631e-07 0)
(0 -1.28505e-07 0)
(0 -1.28377e-07 0)
(0 -1.2825e-07 0)
(0 -1.28121e-07 0)
(0 -1.27992e-07 0)
(0 -1.27863e-07 0)
(0 -1.27736e-07 0)
(0 -1.27606e-07 0)
(0 -1.27475e-07 0)
(0 -1.27345e-07 0)
(0 -1.27211e-07 0)
(0 -1.27078e-07 0)
(0 -1.26946e-07 0)
(0 -1.26812e-07 0)
(0 -1.26677e-07 0)
(0 -1.26542e-07 0)
(0 -1.26409e-07 0)
(0 -1.26275e-07 0)
(0 -1.26139e-07 0)
(0 -1.26004e-07 0)
(0 -1.25869e-07 0)
(0 -1.25732e-07 0)
(0 -1.25596e-07 0)
(0 -1.2546e-07 0)
(0 -1.25323e-07 0)
(0 -1.25184e-07 0)
(0 -1.25044e-07 0)
(0 -1.24906e-07 0)
(0 -1.24767e-07 0)
(0 -1.24628e-07 0)
(0 -1.24487e-07 0)
(0 -1.24345e-07 0)
(0 -1.24205e-07 0)
(0 -1.24065e-07 0)
(0 -1.23923e-07 0)
(0 -1.23781e-07 0)
(0 -1.23639e-07 0)
(0 -1.23494e-07 0)
(0 -1.23351e-07 0)
(0 -1.23207e-07 0)
(0 -1.23063e-07 0)
(0 -1.22918e-07 0)
(0 -1.22771e-07 0)
(0 -1.22624e-07 0)
(0 -1.22476e-07 0)
(0 -1.2233e-07 0)
(0 -1.22183e-07 0)
(0 -1.22033e-07 0)
(0 -1.21881e-07 0)
(0 -1.2173e-07 0)
(0 -1.21581e-07 0)
(0 -1.21431e-07 0)
(0 -1.21279e-07 0)
(0 -1.21126e-07 0)
(0 -1.20972e-07 0)
(0 -1.2082e-07 0)
(0 -1.20666e-07 0)
(0 -1.20512e-07 0)
(0 -1.20357e-07 0)
(0 -1.20202e-07 0)
(0 -1.20046e-07 0)
(0 -1.1989e-07 0)
(0 -1.19733e-07 0)
(0 -1.19576e-07 0)
(0 -1.19419e-07 0)
(0 -1.1926e-07 0)
(0 -1.19101e-07 0)
(0 -1.18941e-07 0)
(0 -1.18783e-07 0)
(0 -1.18624e-07 0)
(0 -1.18462e-07 0)
(0 -1.183e-07 0)
(0 -1.18138e-07 0)
(0 -1.17976e-07 0)
(0 -1.17813e-07 0)
(0 -1.17649e-07 0)
(0 -1.17484e-07 0)
(0 -1.1732e-07 0)
(0 -1.17156e-07 0)
(0 -1.16989e-07 0)
(0 -1.16822e-07 0)
(0 -1.16656e-07 0)
(0 -1.1649e-07 0)
(0 -1.16322e-07 0)
(0 -1.16152e-07 0)
(0 -1.15983e-07 0)
(0 -1.15813e-07 0)
(0 -1.15642e-07 0)
(0 -1.15472e-07 0)
(0 -1.15302e-07 0)
(0 -1.15131e-07 0)
(0 -1.14959e-07 0)
(0 -1.14786e-07 0)
(0 -1.14613e-07 0)
(0 -1.1444e-07 0)
(0 -1.14265e-07 0)
(0 -1.14088e-07 0)
(0 -1.13913e-07 0)
(0 -1.13738e-07 0)
(0 -1.13561e-07 0)
(0 -1.13384e-07 0)
(0 -1.13206e-07 0)
(0 -1.13025e-07 0)
(0 -1.12843e-07 0)
(0 -1.12662e-07 0)
(0 -1.12482e-07 0)
(0 -1.12301e-07 0)
(0 -1.12121e-07 0)
(0 -1.1194e-07 0)
(0 -1.11757e-07 0)
(0 -1.11572e-07 0)
(0 -1.11385e-07 0)
(0 -1.11199e-07 0)
(0 -1.11015e-07 0)
(0 -1.10828e-07 0)
(0 -1.1064e-07 0)
(0 -1.10455e-07 0)
(0 -1.10268e-07 0)
(0 -1.10079e-07 0)
(0 -1.0989e-07 0)
(0 -1.09699e-07 0)
(0 -1.09507e-07 0)
(0 -1.09316e-07 0)
(0 -1.09124e-07 0)
(0 -1.08932e-07 0)
(0 -1.0874e-07 0)
(0 -1.08548e-07 0)
(0 -1.08352e-07 0)
(0 -1.08157e-07 0)
(0 -1.07962e-07 0)
(0 -1.07766e-07 0)
(0 -1.07567e-07 0)
(0 -1.07369e-07 0)
(0 -1.0717e-07 0)
(0 -1.06971e-07 0)
(0 -1.06772e-07 0)
(0 -1.06571e-07 0)
(0 -1.0637e-07 0)
(0 -1.06168e-07 0)
(0 -1.05967e-07 0)
(0 -1.05765e-07 0)
(0 -1.05561e-07 0)
(0 -1.05354e-07 0)
(0 -1.05149e-07 0)
(0 -1.04945e-07 0)
(0 -1.04738e-07 0)
(0 -1.0453e-07 0)
(0 -1.04324e-07 0)
(0 -1.04115e-07 0)
(0 -1.03905e-07 0)
(0 -1.03694e-07 0)
(0 -1.03483e-07 0)
(0 -1.03273e-07 0)
(0 -1.03062e-07 0)
(0 -1.02852e-07 0)
(0 -1.02638e-07 0)
(0 -1.02423e-07 0)
(0 -1.0221e-07 0)
(0 -1.01996e-07 0)
(0 -1.0178e-07 0)
(0 -1.01566e-07 0)
(0 -1.01349e-07 0)
(0 -1.01129e-07 0)
(0 -1.0091e-07 0)
(0 -1.00692e-07 0)
(0 -1.00473e-07 0)
(0 -1.00252e-07 0)
(0 -1.00029e-07 0)
(0 -9.98064e-08 0)
(0 -9.95838e-08 0)
(0 -9.9361e-08 0)
(0 -9.91377e-08 0)
(0 -9.89133e-08 0)
(0 -9.86866e-08 0)
(0 -9.84594e-08 0)
(0 -9.82312e-08 0)
(0 -9.80029e-08 0)
(0 -9.77745e-08 0)
(0 -9.75439e-08 0)
(0 -9.73118e-08 0)
(0 -9.70797e-08 0)
(0 -9.6849e-08 0)
(0 -9.66182e-08 0)
(0 -9.6386e-08 0)
(0 -9.61502e-08 0)
(0 -9.59145e-08 0)
(0 -9.56796e-08 0)
(0 -9.54416e-08 0)
(0 -9.52045e-08 0)
(0 -9.49679e-08 0)
(0 -9.47287e-08 0)
(0 -9.44894e-08 0)
(0 -9.42503e-08 0)
(0 -9.4008e-08 0)
(0 -9.37662e-08 0)
(0 -9.35245e-08 0)
(0 -9.32793e-08 0)
(0 -9.30332e-08 0)
(0 -9.27885e-08 0)
(0 -9.25431e-08 0)
(0 -9.22955e-08 0)
(0 -9.20457e-08 0)
(0 -9.17973e-08 0)
(0 -9.15504e-08 0)
(0 -9.1301e-08 0)
(0 -9.10502e-08 0)
(0 -9.07978e-08 0)
(0 -9.05447e-08 0)
(0 -9.02911e-08 0)
(0 -9.00355e-08 0)
(0 -8.97786e-08 0)
(0 -8.95241e-08 0)
(0 -8.92688e-08 0)
(0 -8.90109e-08 0)
(0 -8.87523e-08 0)
(0 -8.84934e-08 0)
(0 -8.82355e-08 0)
(0 -8.79759e-08 0)
(0 -8.77148e-08 0)
(0 -8.74533e-08 0)
(0 -8.71897e-08 0)
(0 -8.69244e-08 0)
(0 -8.66583e-08 0)
(0 -8.63934e-08 0)
(0 -8.61276e-08 0)
(0 -8.58589e-08 0)
(0 -8.55912e-08 0)
(0 -8.53232e-08 0)
(0 -8.50531e-08 0)
(0 -8.47827e-08 0)
(0 -8.45107e-08 0)
(0 -8.4237e-08 0)
(0 -8.39648e-08 0)
(0 -8.36922e-08 0)
(0 -8.34172e-08 0)
(0 -8.31405e-08 0)
(0 -8.28639e-08 0)
(0 -8.25869e-08 0)
(0 -8.23088e-08 0)
(0 -8.20299e-08 0)
(0 -8.17485e-08 0)
(0 -8.14654e-08 0)
(0 -8.11815e-08 0)
(0 -8.08982e-08 0)
(0 -8.06141e-08 0)
(0 -8.03292e-08 0)
(0 -8.00439e-08 0)
(0 -7.9757e-08 0)
(0 -7.94689e-08 0)
(0 -7.91795e-08 0)
(0 -7.88902e-08 0)
(0 -7.85987e-08 0)
(0 -7.8306e-08 0)
(0 -7.80134e-08 0)
(0 -7.77217e-08 0)
(0 -7.74288e-08 0)
(0 -7.71318e-08 0)
(0 -7.68363e-08 0)
(0 -7.65404e-08 0)
(0 -7.62428e-08 0)
(0 -7.59447e-08 0)
(0 -7.5644e-08 0)
(0 -7.53425e-08 0)
(0 -7.50413e-08 0)
(0 -7.47376e-08 0)
(0 -7.44334e-08 0)
(0 -7.413e-08 0)
(0 -7.38249e-08 0)
(0 -7.3518e-08 0)
(0 -7.32093e-08 0)
(0 -7.29018e-08 0)
(0 -7.25917e-08 0)
(0 -7.2278e-08 0)
(0 -7.19641e-08 0)
(0 -7.16511e-08 0)
(0 -7.13385e-08 0)
(0 -7.10223e-08 0)
(0 -7.07072e-08 0)
(0 -7.03926e-08 0)
(0 -7.00738e-08 0)
(0 -6.97553e-08 0)
(0 -6.94376e-08 0)
(0 -6.91198e-08 0)
(0 -6.87982e-08 0)
(0 -6.84751e-08 0)
(0 -6.8155e-08 0)
(0 -6.78329e-08 0)
(0 -6.75076e-08 0)
(0 -6.71824e-08 0)
(0 -6.68566e-08 0)
(0 -6.65288e-08 0)
(0 -6.62016e-08 0)
(0 -6.58733e-08 0)
(0 -6.55429e-08 0)
(0 -6.52109e-08 0)
(0 -6.488e-08 0)
(0 -6.45475e-08 0)
(0 -6.42115e-08 0)
(0 -6.38752e-08 0)
(0 -6.35376e-08 0)
(0 -6.31993e-08 0)
(0 -6.28606e-08 0)
(0 -6.25211e-08 0)
(0 -6.21794e-08 0)
(0 -6.18373e-08 0)
(0 -6.14956e-08 0)
(0 -6.11522e-08 0)
(0 -6.0807e-08 0)
(0 -6.04622e-08 0)
(0 -6.0117e-08 0)
(0 -5.97699e-08 0)
(0 -5.94228e-08 0)
(0 -5.90742e-08 0)
(0 -5.87229e-08 0)
(0 -5.83711e-08 0)
(0 -5.80186e-08 0)
(0 -5.76647e-08 0)
(0 -5.73102e-08 0)
(0 -5.69546e-08 0)
(0 -5.65957e-08 0)
(0 -5.62379e-08 0)
(0 -5.58795e-08 0)
(0 -5.55199e-08 0)
(0 -5.5161e-08 0)
(0 -5.47987e-08 0)
(0 -5.44356e-08 0)
(0 -5.40718e-08 0)
(0 -5.37076e-08 0)
(0 -5.33418e-08 0)
(0 -5.29739e-08 0)
(0 -5.26064e-08 0)
(0 -5.22377e-08 0)
(0 -5.18672e-08 0)
(0 -5.14963e-08 0)
(0 -5.1124e-08 0)
(0 -5.07508e-08 0)
(0 -5.0378e-08 0)
(0 -5.00042e-08 0)
(0 -4.96282e-08 0)
(0 -4.9252e-08 0)
(0 -4.88762e-08 0)
(0 -4.84985e-08 0)
(0 -4.81183e-08 0)
(0 -4.7738e-08 0)
(0 -4.7357e-08 0)
(0 -4.69731e-08 0)
(0 -4.65877e-08 0)
(0 -4.62029e-08 0)
(0 -4.58169e-08 0)
(0 -4.54275e-08 0)
(0 -4.50382e-08 0)
(0 -4.46494e-08 0)
(0 -4.42585e-08 0)
(0 -4.38673e-08 0)
(0 -4.34747e-08 0)
(0 -4.30799e-08 0)
(0 -4.26838e-08 0)
(0 -4.2289e-08 0)
(0 -4.18933e-08 0)
(0 -4.14952e-08 0)
(0 -4.10985e-08 0)
(0 -4.06994e-08 0)
(0 -4.02997e-08 0)
(0 -3.98995e-08 0)
(0 -3.94964e-08 0)
(0 -3.90935e-08 0)
(0 -3.86891e-08 0)
(0 -3.82813e-08 0)
(0 -3.78738e-08 0)
(0 -3.74668e-08 0)
(0 -3.70591e-08 0)
(0 -3.66493e-08 0)
(0 -3.62382e-08 0)
(0 -3.58259e-08 0)
(0 -3.54119e-08 0)
(0 -3.49975e-08 0)
(0 -3.45822e-08 0)
(0 -3.41664e-08 0)
(0 -3.37501e-08 0)
(0 -3.33321e-08 0)
(0 -3.29149e-08 0)
(0 -3.2498e-08 0)
(0 -3.20765e-08 0)
(0 -3.16541e-08 0)
(0 -3.12332e-08 0)
(0 -3.08099e-08 0)
(0 -3.0386e-08 0)
(0 -2.99614e-08 0)
(0 -2.95362e-08 0)
(0 -2.91107e-08 0)
(0 -2.86826e-08 0)
(0 -2.82534e-08 0)
(0 -2.78238e-08 0)
(0 -2.73926e-08 0)
(0 -2.6961e-08 0)
(0 -2.65299e-08 0)
(0 -2.60966e-08 0)
(0 -2.56615e-08 0)
(0 -2.52256e-08 0)
(0 -2.47896e-08 0)
(0 -2.43531e-08 0)
(0 -2.39153e-08 0)
(0 -2.34782e-08 0)
(0 -2.30415e-08 0)
(0 -2.26029e-08 0)
(0 -2.2161e-08 0)
(0 -2.17194e-08 0)
(0 -2.12772e-08 0)
(0 -2.08325e-08 0)
(0 -2.03877e-08 0)
(0 -1.9943e-08 0)
(0 -1.94972e-08 0)
(0 -1.90516e-08 0)
(0 -1.86048e-08 0)
(0 -1.81536e-08 0)
(0 -1.77035e-08 0)
(0 -1.7254e-08 0)
(0 -1.68027e-08 0)
(0 -1.63502e-08 0)
(0 -1.58982e-08 0)
(0 -1.54458e-08 0)
(0 -1.49907e-08 0)
(0 -1.45352e-08 0)
(0 -1.4081e-08 0)
(0 -1.36259e-08 0)
(0 -1.31686e-08 0)
(0 -1.27116e-08 0)
(0 -1.22541e-08 0)
(0 -1.17957e-08 0)
(0 -1.13385e-08 0)
(0 -1.08798e-08 0)
(0 -1.04189e-08 0)
(0 -9.95775e-09 0)
(0 -9.49605e-09 0)
(0 -9.0324e-09 0)
(0 -8.57083e-09 0)
(0 -8.10951e-09 0)
(0 -7.64445e-09 0)
(0 -7.17831e-09 0)
(0 -6.71327e-09 0)
(0 -6.24981e-09 0)
(0 -5.78527e-09 0)
(0 -5.31871e-09 0)
(0 -4.85098e-09 0)
(0 -4.38209e-09 0)
(0 -3.91342e-09 0)
(0 -3.44582e-09 0)
(0 -2.9775e-09 0)
(0 -2.50667e-09 0)
(0 -2.03332e-09 0)
(0 -1.56103e-09 0)
(0 -1.09022e-09 0)
(0 -6.18219e-10 0)
(0 -1.4681e-10 0)
(0 3.25354e-10 0)
(0 8.005e-10 0)
(0 1.27552e-09 0)
(0 1.74905e-09 0)
(0 2.22247e-09 0)
(0 2.69799e-09 0)
(0 3.17428e-09 0)
(0 3.64777e-09 0)
(0 4.12245e-09 0)
(0 4.60058e-09 0)
(0 5.07949e-09 0)
(0 5.55824e-09 0)
(0 6.03554e-09 0)
(0 6.51271e-09 0)
(0 6.99106e-09 0)
(0 7.46885e-09 0)
(0 7.94735e-09 0)
(0 8.42571e-09 0)
(0 8.90436e-09 0)
(0 9.38553e-09 0)
(0 9.86789e-09 0)
(0 1.03496e-08 0)
(0 1.08316e-08 0)
(0 1.13129e-08 0)
(0 1.17941e-08 0)
(0 1.22764e-08 0)
(0 1.27594e-08 0)
(0 1.32425e-08 0)
(0 1.37241e-08 0)
(0 1.4205e-08 0)
(0 1.46853e-08 0)
(0 1.5167e-08 0)
(0 1.56493e-08 0)
(0 1.61327e-08 0)
(0 1.66157e-08 0)
(0 1.70976e-08 0)
(0 1.75804e-08 0)
(0 1.80625e-08 0)
(0 1.85455e-08 0)
(0 1.90286e-08 0)
(0 1.95117e-08 0)
(0 1.99958e-08 0)
)
;

boundaryField
{
    bottom
    {
        type            fixedValue;
        value           uniform (0 0 0);
    }
    top
    {
        type            fluxCorrectedVelocity;
        phi             phi.gas;
        rho             rho.gas;
        value           uniform (0 2.02376e-08 0);
    }
    walls
    {
        type            fixedValue;
        value           uniform (0 0 0);
    }
}


// ************************************************************************* //
