/*--------------------------------*- C++ -*----------------------------------*\
| =========                 |                                                 |
| \\      /  F ield         | foam-extend: Open Source CFD                    |
|  \\    /   O peration     | Version:     5.0                                |
|   \\  /    A nd           | Web:         http://www.foam-extend.org         |
|    \\/     M anipulation  |                                                 |
\*---------------------------------------------------------------------------*/
FoamFile
{
    version     2.0;
    format      ascii;
    class       volVectorField;
    location    "15000";
    object      U.water;
}
// * * * * * * * * * * * * * * * * * * * * * * * * * * * * * * * * * * * * * //

dimensions      [0 1 -1 0 0 0 0];

internalField   nonuniform List<vector> 
1500
(
(0 7.89734e-12 0)
(0 -1.04912e-11 0)
(0 -2.11559e-11 0)
(0 9.46186e-12 0)
(0 -5.22622e-13 0)
(0 1.10138e-11 0)
(0 9.43613e-12 0)
(0 -9.81238e-12 0)
(0 -4.8025e-12 0)
(0 -8.80042e-12 0)
(0 3.61951e-12 0)
(0 5.19912e-12 0)
(0 -1.03021e-11 0)
(0 -6.56232e-12 0)
(0 8.30004e-12 0)
(0 2.82685e-12 0)
(0 -1.08087e-11 0)
(0 -1.75344e-11 0)
(0 -3.80494e-12 0)
(0 -6.06354e-12 0)
(0 -1.33812e-11 0)
(0 -2.31037e-11 0)
(0 -1.41716e-11 0)
(0 -8.10784e-12 0)
(0 -6.78905e-12 0)
(0 -9.03308e-12 0)
(0 -2.46816e-11 0)
(0 -1.67154e-11 0)
(0 -1.56461e-11 0)
(0 -1.18983e-11 0)
(0 -1.94109e-11 0)
(0 -3.32638e-11 0)
(0 -2.05432e-11 0)
(0 -3.05849e-11 0)
(0 -1.94233e-11 0)
(0 -1.69033e-11 0)
(0 -2.90653e-11 0)
(0 -3.5429e-11 0)
(0 -2.27831e-11 0)
(0 -1.70422e-11 0)
(0 -4.0698e-11 0)
(0 -4.50094e-11 0)
(0 -5.20167e-11 0)
(0 -3.75188e-11 0)
(0 -2.35714e-11 0)
(0 -4.3664e-11 0)
(0 -5.37296e-11 0)
(0 -4.84089e-11 0)
(0 -5.74656e-11 0)
(0 -3.32058e-11 0)
(0 -3.68206e-11 0)
(0 -6.24464e-11 0)
(0 -5.84351e-11 0)
(0 -5.47216e-11 0)
(0 -5.74922e-11 0)
(0 -5.03774e-11 0)
(0 -7.47156e-11 0)
(0 -8.17719e-11 0)
(0 -5.93491e-11 0)
(0 -6.46841e-11 0)
(0 -7.24921e-11 0)
(0 -7.41788e-11 0)
(0 -7.21108e-11 0)
(0 -7.64799e-11 0)
(0 -9.03265e-11 0)
(0 -8.46681e-11 0)
(0 -7.76919e-11 0)
(0 -8.42377e-11 0)
(0 -8.69746e-11 0)
(0 -9.99369e-11 0)
(0 -1.02786e-10 0)
(0 -1.0572e-10 0)
(0 -9.54852e-11 0)
(0 -9.87977e-11 0)
(0 -1.1393e-10 0)
(0 -1.15726e-10 0)
(0 -1.15319e-10 0)
(0 -9.94559e-11 0)
(0 -1.13503e-10 0)
(0 -1.44738e-10 0)
(0 -1.52261e-10 0)
(0 -1.23134e-10 0)
(0 -1.07796e-10 0)
(0 -1.23999e-10 0)
(0 -1.30704e-10 0)
(0 -1.50734e-10 0)
(0 -1.4729e-10 0)
(0 -1.42409e-10 0)
(0 -1.50995e-10 0)
(0 -1.47873e-10 0)
(0 -1.62821e-10 0)
(0 -1.75405e-10 0)
(0 -1.64501e-10 0)
(0 -1.71756e-10 0)
(0 -1.61181e-10 0)
(0 -1.70319e-10 0)
(0 -1.93439e-10 0)
(0 -1.75127e-10 0)
(0 -1.84423e-10 0)
(0 -2.03803e-10 0)
(0 -1.935e-10 0)
(0 -1.83411e-10 0)
(0 -2.03182e-10 0)
(0 -2.12662e-10 0)
(0 -2.06584e-10 0)
(0 -2.14704e-10 0)
(0 -2.20486e-10 0)
(0 -2.10772e-10 0)
(0 -2.19141e-10 0)
(0 -2.32993e-10 0)
(0 -2.42924e-10 0)
(0 -2.473e-10 0)
(0 -2.41655e-10 0)
(0 -2.32311e-10 0)
(0 -2.41058e-10 0)
(0 -2.63117e-10 0)
(0 -2.61594e-10 0)
(0 -2.54699e-10 0)
(0 -2.65235e-10 0)
(0 -2.7187e-10 0)
(0 -2.80724e-10 0)
(0 -2.83479e-10 0)
(0 -2.78505e-10 0)
(0 -2.99282e-10 0)
(0 -3.02142e-10 0)
(0 -2.8948e-10 0)
(0 -3.14318e-10 0)
(0 -3.17262e-10 0)
(0 -2.93049e-10 0)
(0 -3.14307e-10 0)
(0 -3.4486e-10 0)
(0 -3.28356e-10 0)
(0 -3.30081e-10 0)
(0 -3.37422e-10 0)
(0 -3.36926e-10 0)
(0 -3.50566e-10 0)
(0 -3.50157e-10 0)
(0 -3.53779e-10 0)
(0 -3.71424e-10 0)
(0 -3.78853e-10 0)
(0 -3.66842e-10 0)
(0 -3.84627e-10 0)
(0 -3.88339e-10 0)
(0 -3.84349e-10 0)
(0 -3.9055e-10 0)
(0 -3.94569e-10 0)
(0 -3.98654e-10 0)
(0 -4.32308e-10 0)
(0 -4.28289e-10 0)
(0 -3.90997e-10 0)
(0 -4.08517e-10 0)
(0 -4.43598e-10 0)
(0 -4.52712e-10 0)
(0 -4.49162e-10 0)
(0 -4.38944e-10 0)
(0 -4.40669e-10 0)
(0 -4.72726e-10 0)
(0 -4.74253e-10 0)
(0 -4.79799e-10 0)
(0 -4.92195e-10 0)
(0 -4.85981e-10 0)
(0 -4.95621e-10 0)
(0 -4.92603e-10 0)
(0 -4.8676e-10 0)
(0 -5.20032e-10 0)
(0 -5.28849e-10 0)
(0 -5.03405e-10 0)
(0 -5.17337e-10 0)
(0 -5.49897e-10 0)
(0 -5.40193e-10 0)
(0 -5.42384e-10 0)
(0 -5.55421e-10 0)
(0 -5.49947e-10 0)
(0 -5.64102e-10 0)
(0 -5.69438e-10 0)
(0 -5.9139e-10 0)
(0 -6.05379e-10 0)
(0 -5.87134e-10 0)
(0 -5.93638e-10 0)
(0 -6.00202e-10 0)
(0 -6.13505e-10 0)
(0 -6.23999e-10 0)
(0 -6.03315e-10 0)
(0 -6.24782e-10 0)
(0 -6.54984e-10 0)
(0 -6.46047e-10 0)
(0 -6.51684e-10 0)
(0 -6.62428e-10 0)
(0 -6.81127e-10 0)
(0 -6.7885e-10 0)
(0 -6.62307e-10 0)
(0 -6.85283e-10 0)
(0 -6.98902e-10 0)
(0 -7.02109e-10 0)
(0 -7.13235e-10 0)
(0 -7.07331e-10 0)
(0 -7.26419e-10 0)
(0 -7.33708e-10 0)
(0 -7.3592e-10 0)
(0 -7.51036e-10 0)
(0 -7.46691e-10 0)
(0 -7.52982e-10 0)
(0 -7.52788e-10 0)
(0 -7.80041e-10 0)
(0 -7.90163e-10 0)
(0 -7.82106e-10 0)
(0 -7.97702e-10 0)
(0 -8.00333e-10 0)
(0 -8.12006e-10 0)
(0 -8.12051e-10 0)
(0 -8.30366e-10 0)
(0 -8.5382e-10 0)
(0 -8.46022e-10 0)
(0 -8.52726e-10 0)
(0 -8.64503e-10 0)
(0 -8.64618e-10 0)
(0 -8.55972e-10 0)
(0 -8.79941e-10 0)
(0 -8.99736e-10 0)
(0 -8.98796e-10 0)
(0 -9.22643e-10 0)
(0 -9.07342e-10 0)
(0 -9.14553e-10 0)
(0 -9.38514e-10 0)
(0 -9.3907e-10 0)
(0 -9.54106e-10 0)
(0 -9.70268e-10 0)
(0 -9.70785e-10 0)
(0 -9.70212e-10 0)
(0 -9.82657e-10 0)
(0 -9.75765e-10 0)
(0 -9.8321e-10 0)
(0 -1.0155e-09 0)
(0 -1.02045e-09 0)
(0 -1.02387e-09 0)
(0 -1.02487e-09 0)
(0 -1.03787e-09 0)
(0 -1.06497e-09 0)
(0 -1.05816e-09 0)
(0 -1.07283e-09 0)
(0 -1.09178e-09 0)
(0 -1.08613e-09 0)
(0 -1.08542e-09 0)
(0 -1.03046e-09 0)
(0 6.31454e-11 0)
(0 2.17787e-09 0)
(0 4.31218e-09 0)
(0 6.44416e-09 0)
(0 8.60122e-09 0)
(0 1.07724e-08 0)
(0 1.29401e-08 0)
(0 1.51489e-08 0)
(0 1.73443e-08 0)
(0 1.95553e-08 0)
(0 2.17793e-08 0)
(0 2.40282e-08 0)
(0 2.63188e-08 0)
(0 2.85955e-08 0)
(0 3.08946e-08 0)
(0 3.31813e-08 0)
(0 3.54591e-08 0)
(0 3.78159e-08 0)
(0 4.01687e-08 0)
(0 4.24588e-08 0)
(0 4.48864e-08 0)
(0 4.73258e-08 0)
(0 4.97028e-08 0)
(0 5.20744e-08 0)
(0 5.44856e-08 0)
(0 5.6971e-08 0)
(0 5.94249e-08 0)
(0 6.18615e-08 0)
(0 6.43231e-08 0)
(0 6.67971e-08 0)
(0 6.93549e-08 0)
(0 7.19241e-08 0)
(0 7.4421e-08 0)
(0 7.69102e-08 0)
(0 7.95144e-08 0)
(0 8.20703e-08 0)
(0 8.45874e-08 0)
(0 8.72741e-08 0)
(0 8.99062e-08 0)
(0 9.25173e-08 0)
(0 9.52337e-08 0)
(0 9.78395e-08 0)
(0 1.0041e-07 0)
(0 1.03247e-07 0)
(0 1.05966e-07 0)
(0 1.08441e-07 0)
(0 1.1121e-07 0)
(0 1.14102e-07 0)
(0 1.16868e-07 0)
(0 1.19572e-07 0)
(0 1.22421e-07 0)
(0 1.25159e-07 0)
(0 1.27812e-07 0)
(0 1.30716e-07 0)
(0 1.33647e-07 0)
(0 1.36407e-07 0)
(0 1.39184e-07 0)
(0 1.42256e-07 0)
(0 1.45045e-07 0)
(0 1.4798e-07 0)
(0 1.51009e-07 0)
(0 1.53776e-07 0)
(0 1.56669e-07 0)
(0 1.59524e-07 0)
(0 1.62766e-07 0)
(0 1.65755e-07 0)
(0 1.68633e-07 0)
(0 1.71565e-07 0)
(0 1.74497e-07 0)
(0 1.77838e-07 0)
(0 1.809e-07 0)
(0 1.83894e-07 0)
(0 1.867e-07 0)
(0 1.89866e-07 0)
(0 1.93347e-07 0)
(0 1.96297e-07 0)
(0 1.99265e-07 0)
(0 2.02564e-07 0)
(0 2.05529e-07 0)
(0 2.08717e-07 0)
(0 2.12092e-07 0)
(0 2.15154e-07 0)
(0 2.18462e-07 0)
(0 2.21616e-07 0)
(0 2.25027e-07 0)
(0 2.28177e-07 0)
(0 2.31363e-07 0)
(0 2.34786e-07 0)
(0 2.37789e-07 0)
(0 2.41303e-07 0)
(0 2.4451e-07 0)
(0 2.47857e-07 0)
(0 2.51438e-07 0)
(0 2.54565e-07 0)
(0 2.58087e-07 0)
(0 2.61555e-07 0)
(0 2.6476e-07 0)
(0 2.68268e-07 0)
(0 2.71704e-07 0)
(0 2.75083e-07 0)
(0 2.78638e-07 0)
(0 2.81992e-07 0)
(0 2.85398e-07 0)
(0 2.88882e-07 0)
(0 2.92509e-07 0)
(0 2.96146e-07 0)
(0 2.99473e-07 0)
(0 3.03153e-07 0)
(0 3.06874e-07 0)
(0 3.1018e-07 0)
(0 3.13758e-07 0)
(0 3.17577e-07 0)
(0 3.21306e-07 0)
(0 3.24838e-07 0)
(0 3.2828e-07 0)
(0 3.3187e-07 0)
(0 3.35669e-07 0)
(0 3.39358e-07 0)
(0 3.42707e-07 0)
(0 3.46815e-07 0)
(0 3.50665e-07 0)
(0 3.5428e-07 0)
(0 3.58126e-07 0)
(0 3.61563e-07 0)
(0 3.65514e-07 0)
(0 3.695e-07 0)
(0 3.73271e-07 0)
(0 3.76959e-07 0)
(0 3.80779e-07 0)
(0 3.84537e-07 0)
(0 3.88384e-07 0)
(0 3.92294e-07 0)
(0 3.96299e-07 0)
(0 4.00036e-07 0)
(0 4.0426e-07 0)
(0 4.081e-07 0)
(0 4.11544e-07 0)
(0 4.16098e-07 0)
(0 4.2e-07 0)
(0 4.2371e-07 0)
(0 4.27783e-07 0)
(0 4.31626e-07 0)
(0 4.35953e-07 0)
(0 4.40276e-07 0)
(0 4.43724e-07 0)
(0 4.47915e-07 0)
(0 4.52211e-07 0)
(0 4.5628e-07 0)
(0 4.6029e-07 0)
(0 4.64237e-07 0)
(0 4.68827e-07 0)
(0 4.72622e-07 0)
(0 4.76426e-07 0)
(0 4.80963e-07 0)
(0 4.85332e-07 0)
(0 4.89251e-07 0)
(0 4.9346e-07 0)
(0 4.97889e-07 0)
(0 5.02077e-07 0)
(0 5.06248e-07 0)
(0 5.10477e-07 0)
(0 5.14668e-07 0)
(0 5.19033e-07 0)
(0 5.23458e-07 0)
(0 5.27785e-07 0)
(0 5.31992e-07 0)
(0 5.36272e-07 0)
(0 5.40919e-07 0)
(0 5.45014e-07 0)
(0 5.49541e-07 0)
(0 5.53853e-07 0)
(0 5.58224e-07 0)
(0 5.62834e-07 0)
(0 5.67169e-07 0)
(0 5.71376e-07 0)
(0 5.75934e-07 0)
(0 5.80833e-07 0)
(0 5.84942e-07 0)
(0 5.89484e-07 0)
(0 5.9402e-07 0)
(0 5.98478e-07 0)
(0 6.03177e-07 0)
(0 6.07611e-07 0)
(0 6.12208e-07 0)
(0 6.16758e-07 0)
(0 6.21332e-07 0)
(0 6.26018e-07 0)
(0 6.3065e-07 0)
(0 6.35349e-07 0)
(0 6.3987e-07 0)
(0 6.44545e-07 0)
(0 6.49327e-07 0)
(0 6.5405e-07 0)
(0 6.58664e-07 0)
(0 6.6325e-07 0)
(0 6.67948e-07 0)
(0 6.72895e-07 0)
(0 6.77601e-07 0)
(0 6.82284e-07 0)
(0 6.87158e-07 0)
(0 6.92119e-07 0)
(0 6.96834e-07 0)
(0 7.01395e-07 0)
(0 7.06305e-07 0)
(0 7.11226e-07 0)
(0 7.16314e-07 0)
(0 7.21035e-07 0)
(0 7.25747e-07 0)
(0 7.30719e-07 0)
(0 7.3566e-07 0)
(0 7.40494e-07 0)
(0 7.45328e-07 0)
(0 7.50432e-07 0)
(0 7.55582e-07 0)
(0 7.60459e-07 0)
(0 7.65546e-07 0)
(0 7.70561e-07 0)
(0 7.75406e-07 0)
(0 7.80579e-07 0)
(0 7.85426e-07 0)
(0 7.90507e-07 0)
(0 7.95874e-07 0)
(0 8.00659e-07 0)
(0 8.05741e-07 0)
(0 8.1099e-07 0)
(0 8.16134e-07 0)
(0 8.21322e-07 0)
(0 8.26384e-07 0)
(0 8.31462e-07 0)
(0 8.36723e-07 0)
(0 8.42065e-07 0)
(0 8.47245e-07 0)
(0 8.52428e-07 0)
(0 8.57506e-07 0)
(0 8.62583e-07 0)
(0 8.68099e-07 0)
(0 8.73386e-07 0)
(0 8.78686e-07 0)
(0 8.84121e-07 0)
(0 8.89098e-07 0)
(0 8.94423e-07 0)
(0 9.00033e-07 0)
(0 9.0528e-07 0)
(0 9.10584e-07 0)
(0 9.16029e-07 0)
(0 9.21276e-07 0)
(0 9.26754e-07 0)
(0 9.324e-07 0)
(0 9.37652e-07 0)
(0 9.42922e-07 0)
(0 9.48561e-07 0)
(0 9.5393e-07 0)
(0 9.5944e-07 0)
(0 9.65178e-07 0)
(0 9.70437e-07 0)
(0 9.75974e-07 0)
(0 9.81474e-07 0)
(0 9.87121e-07 0)
(0 9.92765e-07 0)
(0 9.97978e-07 0)
(0 1.00381e-06 0)
(0 1.00955e-06 0)
(0 1.0151e-06 0)
(0 1.02093e-06 0)
(0 1.0262e-06 0)
(0 1.03168e-06 0)
(0 1.03782e-06 0)
(0 1.0434e-06 0)
(0 1.04875e-06 0)
(0 1.05466e-06 0)
(0 1.06054e-06 0)
(0 1.0663e-06 0)
(0 1.07186e-06 0)
(0 1.07746e-06 0)
(0 1.08357e-06 0)
(0 1.08921e-06 0)
(0 1.09485e-06 0)
(0 1.10084e-06 0)
(0 1.1066e-06 0)
(0 1.11256e-06 0)
(0 1.11829e-06 0)
(0 1.12393e-06 0)
(0 1.13028e-06 0)
(0 1.13603e-06 0)
(0 1.14162e-06 0)
(0 1.14802e-06 0)
(0 1.15382e-06 0)
(0 1.15936e-06 0)
(0 1.16566e-06 0)
(0 1.17174e-06 0)
(0 1.17747e-06 0)
(0 1.1835e-06 0)
(0 1.18953e-06 0)
(0 1.19547e-06 0)
(0 1.20131e-06 0)
(0 1.20768e-06 0)
(0 1.214e-06 0)
(0 1.21975e-06 0)
(0 1.22594e-06 0)
(0 1.23207e-06 0)
(0 1.23794e-06 0)
(0 1.24398e-06 0)
(0 1.25035e-06 0)
(0 1.25648e-06 0)
(0 1.2626e-06 0)
(0 1.26896e-06 0)
(0 1.27513e-06 0)
(0 1.28118e-06 0)
(0 1.28737e-06 0)
(0 1.29385e-06 0)
(0 1.2998e-06 0)
(0 1.3058e-06 0)
(0 1.31236e-06 0)
(0 1.31889e-06 0)
(0 1.32509e-06 0)
(0 1.33127e-06 0)
(0 1.33769e-06 0)
(0 1.34397e-06 0)
(0 1.35015e-06 0)
(0 1.35668e-06 0)
(0 1.36322e-06 0)
(0 1.36929e-06 0)
(0 1.37571e-06 0)
(0 1.38219e-06 0)
(0 1.38855e-06 0)
(0 1.39513e-06 0)
(0 1.40151e-06 0)
(0 1.40797e-06 0)
(0 1.41473e-06 0)
(0 1.421e-06 0)
(0 1.42736e-06 0)
(0 1.43398e-06 0)
(0 1.44039e-06 0)
(0 1.44701e-06 0)
(0 1.45366e-06 0)
(0 1.46031e-06 0)
(0 1.46674e-06 0)
(0 1.47342e-06 0)
(0 1.48003e-06 0)
(0 1.48624e-06 0)
(0 1.49318e-06 0)
(0 1.50001e-06 0)
(0 1.50634e-06 0)
(0 1.51324e-06 0)
(0 1.52014e-06 0)
(0 1.52646e-06 0)
(0 1.53314e-06 0)
(0 1.54e-06 0)
(0 1.54666e-06 0)
(0 1.55337e-06 0)
(0 1.56024e-06 0)
(0 1.56712e-06 0)
(0 1.57383e-06 0)
(0 1.58065e-06 0)
(0 1.58731e-06 0)
(0 1.59427e-06 0)
(0 1.60109e-06 0)
(0 1.60775e-06 0)
(0 1.61484e-06 0)
(0 1.62174e-06 0)
(0 1.62846e-06 0)
(0 1.6354e-06 0)
(0 1.64234e-06 0)
(0 1.64929e-06 0)
(0 1.65624e-06 0)
(0 1.66316e-06 0)
(0 1.67008e-06 0)
(0 1.67705e-06 0)
(0 1.68429e-06 0)
(0 1.69114e-06 0)
(0 1.69801e-06 0)
(0 1.70524e-06 0)
(0 1.71239e-06 0)
(0 1.71942e-06 0)
(0 1.72638e-06 0)
(0 1.73343e-06 0)
(0 1.74057e-06 0)
(0 1.74769e-06 0)
(0 1.75465e-06 0)
(0 1.76184e-06 0)
(0 1.76904e-06 0)
(0 1.7762e-06 0)
(0 1.78336e-06 0)
(0 1.79053e-06 0)
(0 1.79776e-06 0)
(0 1.80499e-06 0)
(0 1.81212e-06 0)
(0 1.81945e-06 0)
(0 1.8267e-06 0)
(0 1.83379e-06 0)
(0 1.84128e-06 0)
(0 1.84874e-06 0)
(0 1.85581e-06 0)
(0 1.86303e-06 0)
(0 1.87045e-06 0)
(0 1.87785e-06 0)
(0 1.88515e-06 0)
(0 1.89239e-06 0)
(0 1.89995e-06 0)
(0 1.90728e-06 0)
(0 1.9147e-06 0)
(0 1.92218e-06 0)
(0 1.9295e-06 0)
(0 1.93689e-06 0)
(0 1.94445e-06 0)
(0 1.95197e-06 0)
(0 1.9593e-06 0)
(0 1.96673e-06 0)
(0 1.9744e-06 0)
(0 1.98195e-06 0)
(0 1.98929e-06 0)
(0 1.99692e-06 0)
(0 2.00458e-06 0)
(0 2.01195e-06 0)
(0 2.01956e-06 0)
(0 2.02743e-06 0)
(0 2.03498e-06 0)
(0 2.04243e-06 0)
(0 2.05007e-06 0)
(0 2.05772e-06 0)
(0 2.06539e-06 0)
(0 2.07318e-06 0)
(0 2.08073e-06 0)
(0 2.08836e-06 0)
(0 2.09613e-06 0)
(0 2.10391e-06 0)
(0 2.11162e-06 0)
(0 2.11919e-06 0)
(0 2.12713e-06 0)
(0 2.135e-06 0)
(0 2.14273e-06 0)
(0 2.15059e-06 0)
(0 2.15827e-06 0)
(0 2.16604e-06 0)
(0 2.174e-06 0)
(0 2.18179e-06 0)
(0 2.18961e-06 0)
(0 2.19744e-06 0)
(0 2.20532e-06 0)
(0 2.21336e-06 0)
(0 2.22124e-06 0)
(0 2.22908e-06 0)
(0 2.23706e-06 0)
(0 2.24501e-06 0)
(0 2.25296e-06 0)
(0 2.26102e-06 0)
(0 2.26886e-06 0)
(0 2.27691e-06 0)
(0 2.285e-06 0)
(0 2.29293e-06 0)
(0 2.30106e-06 0)
(0 2.30898e-06 0)
(0 2.31701e-06 0)
(0 2.32518e-06 0)
(0 2.33337e-06 0)
(0 2.34144e-06 0)
(0 2.3494e-06 0)
(0 2.3574e-06 0)
(0 2.36556e-06 0)
(0 2.37403e-06 0)
(0 2.38204e-06 0)
(0 2.39013e-06 0)
(0 2.39833e-06 0)
(0 2.40647e-06 0)
(0 2.4148e-06 0)
(0 2.4231e-06 0)
(0 2.43123e-06 0)
(0 2.43956e-06 0)
(0 2.44786e-06 0)
(0 2.45578e-06 0)
(0 2.46432e-06 0)
(0 2.47259e-06 0)
(0 2.48092e-06 0)
(0 2.48945e-06 0)
(0 2.49748e-06 0)
(0 2.50565e-06 0)
(0 2.51435e-06 0)
(0 2.52269e-06 0)
(0 2.5309e-06 0)
(0 2.53942e-06 0)
(0 2.54791e-06 0)
(0 2.55631e-06 0)
(0 2.56458e-06 0)
(0 2.57302e-06 0)
(0 2.58162e-06 0)
(0 2.59017e-06 0)
(0 2.5984e-06 0)
(0 2.60693e-06 0)
(0 2.61537e-06 0)
(0 2.62395e-06 0)
(0 2.63255e-06 0)
(0 2.64109e-06 0)
(0 2.6498e-06 0)
(0 2.65834e-06 0)
(0 2.66684e-06 0)
(0 2.67528e-06 0)
(0 2.68381e-06 0)
(0 2.69265e-06 0)
(0 2.70128e-06 0)
(0 2.70984e-06 0)
(0 2.71856e-06 0)
(0 2.72706e-06 0)
(0 2.73587e-06 0)
(0 2.74466e-06 0)
(0 2.75314e-06 0)
(0 2.76184e-06 0)
(0 2.77062e-06 0)
(0 2.77946e-06 0)
(0 2.78818e-06 0)
(0 2.79673e-06 0)
(0 2.80574e-06 0)
(0 2.81464e-06 0)
(0 2.8233e-06 0)
(0 2.83197e-06 0)
(0 2.84085e-06 0)
(0 2.84972e-06 0)
(0 2.85847e-06 0)
(0 2.86734e-06 0)
(0 2.87615e-06 0)
(0 2.88514e-06 0)
(0 2.89408e-06 0)
(0 2.90284e-06 0)
(0 2.91181e-06 0)
(0 2.92082e-06 0)
(0 2.92976e-06 0)
(0 2.93872e-06 0)
(0 2.94747e-06 0)
(0 2.95661e-06 0)
(0 2.96563e-06 0)
(0 2.97449e-06 0)
(0 2.98369e-06 0)
(0 2.9926e-06 0)
(0 3.00166e-06 0)
(0 3.01076e-06 0)
(0 3.01957e-06 0)
(0 3.02869e-06 0)
(0 3.03797e-06 0)
(0 3.04696e-06 0)
(0 3.05596e-06 0)
(0 3.06521e-06 0)
(0 3.07436e-06 0)
(0 3.08341e-06 0)
(0 3.09259e-06 0)
(0 3.1017e-06 0)
(0 3.11091e-06 0)
(0 3.12007e-06 0)
(0 3.12921e-06 0)
(0 3.13848e-06 0)
(0 3.14778e-06 0)
(0 3.15695e-06 0)
(0 3.16607e-06 0)
(0 3.17547e-06 0)
(0 3.18469e-06 0)
(0 3.19397e-06 0)
(0 3.20329e-06 0)
(0 3.21251e-06 0)
(0 3.22173e-06 0)
(0 3.23113e-06 0)
(0 3.24044e-06 0)
(0 3.24984e-06 0)
(0 3.25929e-06 0)
(0 3.26854e-06 0)
(0 3.27791e-06 0)
(0 3.2872e-06 0)
(0 3.29672e-06 0)
(0 3.30623e-06 0)
(0 3.3155e-06 0)
(0 3.32495e-06 0)
(0 3.33444e-06 0)
(0 3.34376e-06 0)
(0 3.35332e-06 0)
(0 3.36268e-06 0)
(0 3.37218e-06 0)
(0 3.38187e-06 0)
(0 3.39138e-06 0)
(0 3.40077e-06 0)
(0 3.4103e-06 0)
(0 3.41993e-06 0)
(0 3.42924e-06 0)
(0 3.43902e-06 0)
(0 3.44862e-06 0)
(0 3.45804e-06 0)
(0 3.46777e-06 0)
(0 3.47728e-06 0)
(0 3.48696e-06 0)
(0 3.49669e-06 0)
(0 3.50622e-06 0)
(0 3.51577e-06 0)
(0 3.52544e-06 0)
(0 3.5351e-06 0)
(0 3.54495e-06 0)
(0 3.55469e-06 0)
(0 3.56412e-06 0)
(0 3.57389e-06 0)
(0 3.58375e-06 0)
(0 3.59342e-06 0)
(0 3.60308e-06 0)
(0 3.61293e-06 0)
(0 3.62267e-06 0)
(0 3.63242e-06 0)
(0 3.64219e-06 0)
(0 3.65207e-06 0)
(0 3.66185e-06 0)
(0 3.67158e-06 0)
(0 3.6814e-06 0)
(0 3.69127e-06 0)
(0 3.70132e-06 0)
(0 3.71099e-06 0)
(0 3.72068e-06 0)
(0 3.73075e-06 0)
(0 3.7407e-06 0)
(0 3.75048e-06 0)
(0 3.76034e-06 0)
(0 3.77034e-06 0)
(0 3.7803e-06 0)
(0 3.7901e-06 0)
(0 3.80014e-06 0)
(0 3.81021e-06 0)
(0 3.82008e-06 0)
(0 3.82999e-06 0)
(0 3.83987e-06 0)
(0 3.84992e-06 0)
(0 3.85995e-06 0)
(0 3.86997e-06 0)
(0 3.88018e-06 0)
(0 3.89006e-06 0)
(0 3.89997e-06 0)
(0 3.91012e-06 0)
(0 3.92024e-06 0)
(0 3.93028e-06 0)
(0 3.94033e-06 0)
(0 3.95046e-06 0)
(0 3.96059e-06 0)
(0 3.97058e-06 0)
(0 3.98073e-06 0)
(0 3.99087e-06 0)
(0 4.00084e-06 0)
(0 4.01106e-06 0)
(0 4.02134e-06 0)
(0 4.03149e-06 0)
(0 4.04161e-06 0)
(0 4.05182e-06 0)
(0 4.06199e-06 0)
(0 4.07209e-06 0)
(0 4.08224e-06 0)
(0 4.09253e-06 0)
(0 4.10292e-06 0)
(0 4.11315e-06 0)
(0 4.12321e-06 0)
(0 4.13337e-06 0)
(0 4.14373e-06 0)
(0 4.15403e-06 0)
(0 4.16431e-06 0)
(0 4.17459e-06 0)
(0 4.1847e-06 0)
(0 4.19517e-06 0)
(0 4.2056e-06 0)
(0 4.21572e-06 0)
(0 4.22607e-06 0)
(0 4.23628e-06 0)
(0 4.24676e-06 0)
(0 4.25713e-06 0)
(0 4.26737e-06 0)
(0 4.27785e-06 0)
(0 4.28805e-06 0)
(0 4.29848e-06 0)
(0 4.30889e-06 0)
(0 4.31925e-06 0)
(0 4.32967e-06 0)
(0 4.34013e-06 0)
(0 4.35055e-06 0)
(0 4.36089e-06 0)
(0 4.37137e-06 0)
(0 4.38162e-06 0)
(0 4.39219e-06 0)
(0 4.40273e-06 0)
(0 4.41314e-06 0)
(0 4.42368e-06 0)
(0 4.43383e-06 0)
(0 4.44434e-06 0)
(0 4.45506e-06 0)
(0 4.46542e-06 0)
(0 4.47604e-06 0)
(0 4.4865e-06 0)
(0 4.49688e-06 0)
(0 4.5076e-06 0)
(0 4.51789e-06 0)
(0 4.52839e-06 0)
(0 4.53905e-06 0)
(0 4.54963e-06 0)
(0 4.56022e-06 0)
(0 4.57062e-06 0)
(0 4.58123e-06 0)
(0 4.5919e-06 0)
(0 4.60246e-06 0)
(0 4.61289e-06 0)
(0 4.62334e-06 0)
(0 4.63403e-06 0)
(0 4.64474e-06 0)
(0 4.6552e-06 0)
(0 4.66588e-06 0)
(0 4.67649e-06 0)
(0 4.68708e-06 0)
(0 4.69775e-06 0)
(0 4.70829e-06 0)
(0 4.71888e-06 0)
(0 4.72957e-06 0)
(0 4.74018e-06 0)
(0 4.75084e-06 0)
(0 4.76163e-06 0)
(0 4.77217e-06 0)
(0 4.78278e-06 0)
(0 4.79343e-06 0)
(0 4.80408e-06 0)
(0 4.81469e-06 0)
(0 4.82547e-06 0)
(0 4.83617e-06 0)
(0 4.84657e-06 0)
(0 4.85751e-06 0)
(0 4.86821e-06 0)
(0 4.87864e-06 0)
(0 4.88954e-06 0)
(0 4.90024e-06 0)
(0 4.91087e-06 0)
(0 4.92171e-06 0)
(0 4.93229e-06 0)
(0 4.94293e-06 0)
(0 4.95369e-06 0)
(0 4.96445e-06 0)
(0 4.97531e-06 0)
(0 4.98587e-06 0)
(0 4.99658e-06 0)
(0 5.00724e-06 0)
(0 5.01788e-06 0)
(0 5.02876e-06 0)
(0 5.03936e-06 0)
(0 5.05014e-06 0)
(0 5.061e-06 0)
(0 5.0716e-06 0)
(0 5.08231e-06 0)
(0 5.09314e-06 0)
(0 5.10392e-06 0)
(0 5.11471e-06 0)
(0 5.1254e-06 0)
(0 5.13593e-06 0)
(0 5.14673e-06 0)
(0 5.15768e-06 0)
(0 5.16832e-06 0)
(0 5.17889e-06 0)
(0 5.18984e-06 0)
(0 5.20061e-06 0)
(0 5.21107e-06 0)
(0 5.22177e-06 0)
(0 5.23277e-06 0)
(0 5.24361e-06 0)
(0 5.2542e-06 0)
(0 5.26505e-06 0)
(0 5.27558e-06 0)
(0 5.28631e-06 0)
(0 5.29717e-06 0)
(0 5.30786e-06 0)
(0 5.31862e-06 0)
(0 5.32927e-06 0)
(0 5.33994e-06 0)
(0 5.35073e-06 0)
(0 5.3617e-06 0)
(0 5.37216e-06 0)
(0 5.38287e-06 0)
(0 5.39374e-06 0)
(0 5.40422e-06 0)
(0 5.41506e-06 0)
(0 5.42584e-06 0)
(0 5.43642e-06 0)
(0 5.44713e-06 0)
(0 5.45792e-06 0)
(0 5.46875e-06 0)
(0 5.47927e-06 0)
(0 5.48983e-06 0)
(0 5.50061e-06 0)
(0 5.51129e-06 0)
(0 5.52201e-06 0)
(0 5.53262e-06 0)
(0 5.54328e-06 0)
(0 5.55394e-06 0)
(0 5.56455e-06 0)
(0 5.57521e-06 0)
(0 5.58599e-06 0)
(0 5.5966e-06 0)
(0 5.60714e-06 0)
(0 5.61769e-06 0)
(0 5.62829e-06 0)
(0 5.63906e-06 0)
(0 5.64962e-06 0)
(0 5.6601e-06 0)
(0 5.67074e-06 0)
(0 5.68138e-06 0)
(0 5.69186e-06 0)
(0 5.70257e-06 0)
(0 5.7131e-06 0)
(0 5.72354e-06 0)
(0 5.73415e-06 0)
(0 5.74462e-06 0)
(0 5.75508e-06 0)
(0 5.7656e-06 0)
(0 5.77633e-06 0)
(0 5.78678e-06 0)
(0 5.79696e-06 0)
(0 5.80742e-06 0)
(0 5.81814e-06 0)
(0 5.82859e-06 0)
(0 5.83894e-06 0)
(0 5.84934e-06 0)
(0 5.85962e-06 0)
(0 5.87019e-06 0)
(0 5.88067e-06 0)
(0 5.89091e-06 0)
(0 5.90128e-06 0)
(0 5.91165e-06 0)
(0 5.92203e-06 0)
(0 5.93227e-06 0)
(0 5.9427e-06 0)
(0 5.95294e-06 0)
(0 5.96318e-06 0)
(0 5.97353e-06 0)
(0 5.98369e-06 0)
(0 5.99394e-06 0)
(0 6.00413e-06 0)
(0 6.01459e-06 0)
(0 6.02467e-06 0)
(0 6.03455e-06 0)
(0 6.0448e-06 0)
(0 6.05506e-06 0)
(0 6.06519e-06 0)
(0 6.07526e-06 0)
(0 6.08538e-06 0)
(0 6.09544e-06 0)
(0 6.10556e-06 0)
(0 6.11552e-06 0)
(0 6.12544e-06 0)
(0 6.13554e-06 0)
(0 6.1456e-06 0)
(0 6.15546e-06 0)
(0 6.16529e-06 0)
(0 6.17528e-06 0)
(0 6.18519e-06 0)
(0 6.19493e-06 0)
(0 6.20485e-06 0)
(0 6.21485e-06 0)
(0 6.22453e-06 0)
(0 6.23432e-06 0)
(0 6.24401e-06 0)
(0 6.25376e-06 0)
(0 6.26343e-06 0)
(0 6.27322e-06 0)
(0 6.28285e-06 0)
(0 6.29226e-06 0)
(0 6.30212e-06 0)
(0 6.31177e-06 0)
(0 6.32114e-06 0)
(0 6.33063e-06 0)
(0 6.34022e-06 0)
(0 6.34957e-06 0)
(0 6.35901e-06 0)
(0 6.36867e-06 0)
(0 6.37797e-06 0)
(0 6.38717e-06 0)
(0 6.3966e-06 0)
(0 6.40594e-06 0)
(0 6.41517e-06 0)
(0 6.42421e-06 0)
(0 6.43343e-06 0)
(0 6.44285e-06 0)
(0 6.45192e-06 0)
(0 6.46092e-06 0)
(0 6.47002e-06 0)
(0 6.47921e-06 0)
(0 6.48798e-06 0)
(0 6.49682e-06 0)
(0 6.50596e-06 0)
(0 6.51476e-06 0)
(0 6.52352e-06 0)
(0 6.5326e-06 0)
(0 6.54136e-06 0)
(0 6.54998e-06 0)
(0 6.55878e-06 0)
(0 6.56728e-06 0)
(0 6.57584e-06 0)
(0 6.58453e-06 0)
(0 6.59321e-06 0)
(0 6.60151e-06 0)
(0 6.60984e-06 0)
(0 6.61851e-06 0)
(0 6.62676e-06 0)
(0 6.63508e-06 0)
(0 6.64341e-06 0)
(0 6.65156e-06 0)
(0 6.65971e-06 0)
(0 6.66787e-06 0)
(0 6.67607e-06 0)
(0 6.68411e-06 0)
(0 6.69201e-06 0)
(0 6.6999e-06 0)
(0 6.70796e-06 0)
(0 6.71585e-06 0)
(0 6.72342e-06 0)
(0 6.73127e-06 0)
(0 6.73904e-06 0)
(0 6.74651e-06 0)
(0 6.75413e-06 0)
(0 6.76167e-06 0)
(0 6.76917e-06 0)
(0 6.77662e-06 0)
(0 6.78397e-06 0)
(0 6.79125e-06 0)
(0 6.79833e-06 0)
(0 6.80562e-06 0)
(0 6.81294e-06 0)
(0 6.81985e-06 0)
(0 6.8268e-06 0)
(0 6.83383e-06 0)
(0 6.84063e-06 0)
(0 6.84735e-06 0)
(0 6.85422e-06 0)
(0 6.86094e-06 0)
(0 6.86753e-06 0)
(0 6.87406e-06 0)
(0 6.8805e-06 0)
(0 6.88697e-06 0)
(0 6.89336e-06 0)
(0 6.89965e-06 0)
(0 6.90583e-06 0)
(0 6.91191e-06 0)
(0 6.91792e-06 0)
(0 6.92397e-06 0)
(0 6.92986e-06 0)
(0 6.93572e-06 0)
(0 6.94145e-06 0)
(0 6.94706e-06 0)
(0 6.95274e-06 0)
(0 6.95832e-06 0)
(0 6.96381e-06 0)
(0 6.96911e-06 0)
(0 6.97437e-06 0)
(0 6.97941e-06 0)
(0 6.98463e-06 0)
(0 6.98979e-06 0)
(0 6.99454e-06 0)
(0 6.99946e-06 0)
(0 7.00431e-06 0)
(0 7.0089e-06 0)
(0 7.01354e-06 0)
(0 7.01801e-06 0)
(0 7.02227e-06 0)
(0 7.02674e-06 0)
(0 7.03093e-06 0)
(0 7.0349e-06 0)
(0 7.03899e-06 0)
(0 7.04302e-06 0)
(0 7.04678e-06 0)
(0 7.05042e-06 0)
(0 7.05408e-06 0)
(0 7.0577e-06 0)
(0 7.06112e-06 0)
(0 7.06432e-06 0)
(0 7.06748e-06 0)
(0 7.07055e-06 0)
(0 7.07361e-06 0)
(0 7.0765e-06 0)
(0 7.07917e-06 0)
(0 7.08186e-06 0)
(0 7.08456e-06 0)
(0 7.08691e-06 0)
(0 7.08908e-06 0)
(0 7.09126e-06 0)
(0 7.09341e-06 0)
(0 7.09542e-06 0)
(0 7.09719e-06 0)
(0 7.09886e-06 0)
(0 7.10043e-06 0)
(0 7.10184e-06 0)
(0 7.10312e-06 0)
(0 7.10438e-06 0)
(0 7.10556e-06 0)
(0 7.10641e-06 0)
(0 7.10707e-06 0)
(0 7.10785e-06 0)
(0 7.1084e-06 0)
(0 7.10874e-06 0)
(0 7.10903e-06 0)
(0 7.10906e-06 0)
(0 7.10897e-06 0)
(0 7.10895e-06 0)
(0 7.10866e-06 0)
(0 7.10806e-06 0)
(0 7.10742e-06 0)
(0 7.10674e-06 0)
(0 7.1058e-06 0)
(0 7.10473e-06 0)
(0 7.10349e-06 0)
(0 7.10199e-06 0)
(0 7.10051e-06 0)
(0 7.09877e-06 0)
(0 7.09704e-06 0)
(0 7.09497e-06 0)
(0 7.09272e-06 0)
(0 7.09043e-06 0)
(0 7.08788e-06 0)
(0 7.08513e-06 0)
(0 7.08221e-06 0)
(0 7.07922e-06 0)
(0 7.07592e-06 0)
(0 7.0726e-06 0)
(0 7.06903e-06 0)
(0 7.06528e-06 0)
(0 7.06136e-06 0)
(0 7.05703e-06 0)
(0 7.05288e-06 0)
(0 7.04842e-06 0)
(0 7.04356e-06 0)
(0 7.03882e-06 0)
(0 7.0337e-06 0)
(0 7.02838e-06 0)
(0 7.02297e-06 0)
(0 7.01708e-06 0)
(0 7.01131e-06 0)
(0 7.00535e-06 0)
(0 6.99892e-06 0)
(0 6.99246e-06 0)
(0 6.98577e-06 0)
(0 6.97885e-06 0)
(0 6.97155e-06 0)
(0 6.96424e-06 0)
(0 6.9567e-06 0)
(0 6.94894e-06 0)
(0 6.94097e-06 0)
(0 6.93258e-06 0)
(0 6.92429e-06 0)
(0 6.91551e-06 0)
(0 6.90641e-06 0)
(0 6.89738e-06 0)
(0 6.888e-06 0)
(0 6.87836e-06 0)
(0 6.86833e-06 0)
(0 6.85823e-06 0)
(0 6.84805e-06 0)
(0 6.8373e-06 0)
(0 6.82633e-06 0)
(0 6.81528e-06 0)
(0 6.80395e-06 0)
(0 6.79227e-06 0)
(0 6.78047e-06 0)
(0 6.76829e-06 0)
(0 6.7558e-06 0)
(0 6.74308e-06 0)
(0 6.73022e-06 0)
(0 6.71694e-06 0)
(0 6.70336e-06 0)
(0 6.68972e-06 0)
(0 6.67567e-06 0)
(0 6.66131e-06 0)
(0 6.64674e-06 0)
(0 6.63188e-06 0)
(0 6.61664e-06 0)
(0 6.60111e-06 0)
(0 6.58542e-06 0)
(0 6.56941e-06 0)
(0 6.55298e-06 0)
(0 6.53641e-06 0)
(0 6.51944e-06 0)
(0 6.5021e-06 0)
(0 6.48462e-06 0)
(0 6.46671e-06 0)
(0 6.44848e-06 0)
(0 6.43002e-06 0)
(0 6.41121e-06 0)
(0 6.39208e-06 0)
(0 6.37265e-06 0)
(0 6.35289e-06 0)
(0 6.3327e-06 0)
(0 6.31242e-06 0)
(0 6.29162e-06 0)
(0 6.27046e-06 0)
(0 6.24915e-06 0)
(0 6.2273e-06 0)
(0 6.20522e-06 0)
(0 6.18283e-06 0)
(0 6.16002e-06 0)
(0 6.13683e-06 0)
(0 6.1133e-06 0)
(0 6.08956e-06 0)
(0 6.06541e-06 0)
(0 6.04081e-06 0)
(0 6.01591e-06 0)
(0 5.99059e-06 0)
(0 5.965e-06 0)
(0 5.93909e-06 0)
(0 5.91265e-06 0)
(0 5.88591e-06 0)
(0 5.85885e-06 0)
(0 5.83139e-06 0)
(0 5.80348e-06 0)
(0 5.7752e-06 0)
(0 5.74668e-06 0)
(0 5.71775e-06 0)
(0 5.68827e-06 0)
(0 5.65845e-06 0)
(0 5.6284e-06 0)
(0 5.59788e-06 0)
(0 5.56684e-06 0)
(0 5.53557e-06 0)
(0 5.5039e-06 0)
(0 5.47169e-06 0)
(0 5.43917e-06 0)
(0 5.40629e-06 0)
(0 5.37291e-06 0)
(0 5.33917e-06 0)
(0 5.30514e-06 0)
(0 5.27052e-06 0)
(0 5.2355e-06 0)
(0 5.20023e-06 0)
(0 5.16431e-06 0)
(0 5.12814e-06 0)
(0 5.09154e-06 0)
(0 5.05439e-06 0)
(0 5.01705e-06 0)
(0 4.97914e-06 0)
(0 4.9407e-06 0)
(0 4.90213e-06 0)
(0 4.86301e-06 0)
(0 4.82342e-06 0)
(0 4.78337e-06 0)
(0 4.74291e-06 0)
(0 4.70208e-06 0)
(0 4.66074e-06 0)
(0 4.61905e-06 0)
(0 4.5769e-06 0)
(0 4.53436e-06 0)
(0 4.4913e-06 0)
(0 4.44777e-06 0)
(0 4.40397e-06 0)
(0 4.35967e-06 0)
(0 4.31475e-06 0)
(0 4.26963e-06 0)
(0 4.22412e-06 0)
(0 4.17796e-06 0)
(0 4.13151e-06 0)
(0 4.08451e-06 0)
(0 4.03716e-06 0)
(0 3.98939e-06 0)
(0 3.94107e-06 0)
(0 3.89238e-06 0)
(0 3.84335e-06 0)
(0 3.79375e-06 0)
(0 3.74376e-06 0)
(0 3.69342e-06 0)
(0 3.64246e-06 0)
(0 3.5912e-06 0)
(0 3.53952e-06 0)
(0 3.48738e-06 0)
(0 3.43482e-06 0)
(0 3.38179e-06 0)
(0 3.32844e-06 0)
(0 3.27458e-06 0)
(0 3.2202e-06 0)
(0 3.16543e-06 0)
(0 3.1104e-06 0)
(0 3.05485e-06 0)
(0 2.99881e-06 0)
(0 2.94248e-06 0)
(0 2.88578e-06 0)
(0 2.82854e-06 0)
(0 2.77087e-06 0)
(0 2.71284e-06 0)
(0 2.65436e-06 0)
(0 2.59567e-06 0)
(0 2.53641e-06 0)
(0 2.4767e-06 0)
(0 2.41665e-06 0)
(0 2.35633e-06 0)
(0 2.29552e-06 0)
(0 2.2342e-06 0)
(0 2.17269e-06 0)
(0 2.11082e-06 0)
(0 2.04839e-06 0)
(0 1.98562e-06 0)
(0 1.92264e-06 0)
(0 1.85915e-06 0)
(0 1.79537e-06 0)
(0 1.73131e-06 0)
(0 1.66669e-06 0)
(0 1.60172e-06 0)
(0 1.53659e-06 0)
(0 1.47104e-06 0)
(0 1.40508e-06 0)
(0 1.33899e-06 0)
(0 1.27237e-06 0)
(0 1.20533e-06 0)
(0 1.13819e-06 0)
(0 1.0708e-06 0)
(0 1.00299e-06 0)
(0 9.34771e-07 0)
(0 8.66304e-07 0)
(0 7.97554e-07 0)
(0 7.28539e-07 0)
(0 6.59352e-07 0)
(0 5.89808e-07 0)
(0 5.19838e-07 0)
(0 4.49721e-07 0)
(0 3.7935e-07 0)
(0 3.08781e-07 0)
(0 2.37947e-07 0)
(0 1.66753e-07 0)
(0 9.54519e-08 0)
(0 2.3801e-08 0)
(0 -4.80565e-08 0)
(0 -1.20046e-07 0)
(0 -1.92313e-07 0)
(0 -2.64697e-07 0)
(0 -3.37398e-07 0)
(0 -4.10318e-07 0)
(0 -4.83188e-07 0)
(0 -5.56423e-07 0)
(0 -6.29946e-07 0)
(0 -7.0347e-07 0)
(0 -7.77106e-07 0)
(0 -8.50871e-07 0)
(0 -9.24925e-07 0)
(0 -9.99176e-07 0)
(0 -1.07337e-06 0)
(0 -1.14774e-06 0)
(0 -1.22223e-06 0)
(0 -1.29691e-06 0)
(0 -1.37171e-06 0)
(0 -1.44644e-06 0)
(0 -1.52135e-06 0)
(0 -1.59635e-06 0)
(0 -1.67137e-06 0)
(0 -1.7465e-06 0)
(0 -1.82167e-06 0)
(0 -1.89695e-06 0)
(0 -1.9722e-06 0)
(0 -2.04747e-06 0)
(0 -2.12285e-06 0)
(0 -2.19815e-06 0)
(0 -2.27359e-06 0)
(0 -2.34899e-06 0)
(0 -2.42441e-06 0)
(0 -2.49972e-06 0)
(0 -2.575e-06 0)
(0 -2.6504e-06 0)
(0 -2.72567e-06 0)
(0 -2.80098e-06 0)
(0 -2.8762e-06 0)
(0 -2.95132e-06 0)
(0 -3.02645e-06 0)
(0 -3.10147e-06 0)
)
;

boundaryField
{
    bottom
    {
        type            fixedValue;
        value           uniform (0 0 0);
    }
    top
    {
        type            fluxCorrectedVelocity;
        phi             phi.water;
        rho             rho.water;
        value           uniform (0 -3.13895e-06 0);
    }
    walls
    {
        type            fixedValue;
        value           uniform (0 0 0);
    }
}


// ************************************************************************* //
