/*--------------------------------*- C++ -*----------------------------------*\
| =========                 |                                                 |
| \\      /  F ield         | foam-extend: Open Source CFD                    |
|  \\    /   O peration     | Version:     5.0                                |
|   \\  /    A nd           | Web:         http://www.foam-extend.org         |
|    \\/     M anipulation  |                                                 |
\*---------------------------------------------------------------------------*/
FoamFile
{
    version     2.0;
    format      ascii;
    class       volScalarField;
    location    "1";
    object      XH2O;
}
// * * * * * * * * * * * * * * * * * * * * * * * * * * * * * * * * * * * * * //

dimensions      [0 0 0 0 0 0 0];

internalField   nonuniform List<scalar> 
100
(
0.993997
1.00519
1.04239
1.00095
0.854532
0.602826
0.37756
0.167086
0.0877079
-0.015328
0.024173
-0.0461939
0.00755212
0.01099
-0.000767503
0.00111248
0.0221186
-0.00935454
-0.0159005
0.0495562
-0.00942101
0.00550844
-0.0222259
0.0101938
0.051991
-0.0474605
-0.0117423
0.0204202
-0.0406378
0.0615139
0.0194454
-0.0349895
-0.0225433
-0.00491985
0.00738003
-0.0243041
-0.0240764
-0.00231224
0.0525881
-0.0712022
0.0217703
0.0128527
-0.0561538
-0.000762171
0.0382545
-0.0539264
-0.0119071
-0.00952728
-0.0482469
0.0155209
0.00481859
-0.00080775
0.0108209
-0.00425641
-0.0197987
0.0163504
-6.98868e-05
-0.00490034
0.0282961
-0.0333449
0.0281637
-0.017434
-0.0338747
0.027475
-0.021709
-0.0296307
0.0030527
-0.00228062
-0.0104604
-0.00302672
-0.0195443
0.0141025
-0.0272149
-0.00527678
0.00926167
0.0154072
0.013136
-0.00716814
0.0197816
-0.0201106
-0.0343693
-0.011486
0.035186
0.0257903
-0.0359362
-0.00108094
0.0307853
0.0303835
-0.127286
0.0892574
-0.0773253
0.0466664
0.0277316
-0.00443945
-0.00874855
0.0312747
-0.0459192
0.0155266
-0.0464628
0.0625162
)
;

boundaryField
{
    inlet
    {
        type            calculated;
        value           uniform 1;
    }
    outlet
    {
        type            calculated;
        value           uniform 0.0625162;
    }
    yzfaces
    {
        type            empty;
    }
}


// ************************************************************************* //
