/*--------------------------------*- C++ -*----------------------------------*\
| =========                 |                                                 |
| \\      /  F ield         | foam-extend: Open Source CFD                    |
|  \\    /   O peration     | Version:     5.0                                |
|   \\  /    A nd           | Web:         http://www.foam-extend.org         |
|    \\/     M anipulation  |                                                 |
\*---------------------------------------------------------------------------*/
FoamFile
{
    version     2.0;
    format      ascii;
    class       regIOobject;
    location    "4/uniform";
    object      profilingInfo;
}
// * * * * * * * * * * * * * * * * * * * * * * * * * * * * * * * * * * * * * //

profilingInfo
(

    {
        id              6;
        parentId        5;
        description     "Foam::Time::writeObject - outputTime";
        calls           4;
        totalTime       0.177824;
        childTime       0;
        onStack         1;
    }

    {
        id              5;
        parentId        1;
        description     "Foam::Time::writeObject";
        calls           51;
        totalTime       0.178462;
        childTime       0.177824;
        onStack         1;
    }

    {
        id              1;
        description     "application::main";
        calls           1;
        totalTime       2.76515;
        childTime       0.182718;
        onStack         1;
    }

    {
        id              2;
        parentId        1;
        description     "functionObjectList::read";
        calls           1;
        totalTime       8.4e-05;
        childTime       0;
        onStack         0;
    }

    {
        id              3;
        parentId        1;
        description     "fvMatrix::solve_XH2O";
        calls           51;
        totalTime       0.004172;
        childTime       0.000973;
        onStack         0;
    }

    {
        id              4;
        parentId        3;
        description     "lduMatrix::solver_XH2O";
        calls           51;
        totalTime       0.000973;
        childTime       0;
        onStack         0;
    }
);


// ************************************************************************* //
