/*--------------------------------*- C++ -*----------------------------------*\
| =========                 |                                                 |
| \\      /  F ield         | foam-extend: Open Source CFD                    |
|  \\    /   O peration     | Version:     5.0                                |
|   \\  /    A nd           | Web:         http://www.foam-extend.org         |
|    \\/     M anipulation  |                                                 |
\*---------------------------------------------------------------------------*/
FoamFile
{
    version     2.0;
    format      ascii;
    class       volVectorField;
    location    "3";
    object      U.gas;
}
// * * * * * * * * * * * * * * * * * * * * * * * * * * * * * * * * * * * * * //

dimensions      [0 1 -1 0 0 0 0];

internalField   nonuniform List<vector> 
100
(
(0.000252962 0 0)
(0.000570835 0 0)
(0.000875087 0 0)
(0.00118176 0 0)
(0.00150024 0 0)
(0.00184117 0 0)
(0.00222067 0 0)
(0.0026721 0 0)
(0.00325013 0 0)
(0.00407152 0 0)
(0.00527419 0 0)
(0.00611728 0 0)
(0.00563458 0 0)
(0.0053467 0 0)
(0.00522041 0 0)
(0.00517683 0 0)
(0.00513057 0 0)
(0.00509818 0 0)
(0.00509755 0 0)
(0.0050718 0 0)
(0.00503014 0 0)
(0.00508361 0 0)
(0.00506198 0 0)
(0.00492779 0 0)
(0.00483539 0 0)
(0.00477446 0 0)
(0.00471363 0 0)
(0.00465281 0 0)
(0.00465281 0 0)
(0.00465281 0 0)
(0.00465281 0 0)
(0.00474404 0 0)
(0.00471363 0 0)
(0.0046224 0 0)
(0.00465281 0 0)
(0.00465281 0 0)
(0.0046224 0 0)
(0.0046224 0 0)
(0.00468322 0 0)
(0.00465281 0 0)
(0.00465281 0 0)
(0.00459199 0 0)
(0.00443994 0 0)
(0.00437912 0 0)
(0.00425747 0 0)
(0.00419665 0 0)
(0.00419665 0 0)
(0.00413583 0 0)
(0.0040446 0 0)
(0.00401419 0 0)
(0.00398378 0 0)
(0.00395337 0 0)
(0.00398378 0 0)
(0.0040446 0 0)
(0.00410542 0 0)
(0.00416624 0 0)
(0.00419665 0 0)
(0.0043183 0 0)
(0.00443994 0 0)
(0.00447035 0 0)
(0.00450076 0 0)
(0.00450076 0 0)
(0.00459199 0 0)
(0.00471363 0 0)
(0.00477445 0 0)
(0.00474404 0 0)
(0.00465281 0 0)
(0.0046224 0 0)
(0.00471363 0 0)
(0.00483527 0 0)
(0.00480486 0 0)
(0.00471363 0 0)
(0.00468322 0 0)
(0.00471363 0 0)
(0.00480486 0 0)
(0.0048961 0 0)
(0.0048961 0 0)
(0.00486569 0 0)
(0.0048961 0 0)
(0.00492651 0 0)
(0.00486569 0 0)
(0.00474404 0 0)
(0.0046224 0 0)
(0.00453117 0 0)
(0.00450076 0 0)
(0.00450076 0 0)
(0.00459199 0 0)
(0.00459199 0 0)
(0.00450076 0 0)
(0.00453117 0 0)
(0.00456158 0 0)
(0.00453117 0 0)
(0.00456158 0 0)
(0.00459199 0 0)
(0.00456158 0 0)
(0.00459199 0 0)
(0.00456158 0 0)
(0.00450076 0 0)
(0.00447035 0 0)
(0.00440953 0 0)
)
;

boundaryField
{
    inlet
    {
        type            fixedValue;
        value           uniform (0 0 0);
    }
    outlet
    {
        type            zeroGradient;
    }
    yzfaces
    {
        type            empty;
    }
}


// ************************************************************************* //
