/*--------------------------------*- C++ -*----------------------------------*\
| =========                 |                                                 |
| \\      /  F ield         | foam-extend: Open Source CFD                    |
|  \\    /   O peration     | Version:     5.0                                |
|   \\  /    A nd           | Web:         http://www.foam-extend.org         |
|    \\/     M anipulation  |                                                 |
\*---------------------------------------------------------------------------*/
FoamFile
{
    version     2.0;
    format      ascii;
    class       volScalarField;
    location    "9";
    object      XCO2;
}
// * * * * * * * * * * * * * * * * * * * * * * * * * * * * * * * * * * * * * //

dimensions      [0 0 0 0 0 0 0];

internalField   nonuniform List<scalar> 
100
(
-0.0064729
0.00648537
-0.00452558
0.00337725
-0.000597564
-0.000815253
0.0031463
-0.00324873
0.00462073
-0.00351041
0.00423089
-0.00373366
0.00452766
-0.00583089
0.00654236
-0.00835378
0.00777379
-0.00852333
0.00715591
-0.00708041
0.00601012
-0.00555835
0.0048609
-0.00384989
0.00327315
-0.00154016
0.000800107
-0.000106532
0.00064248
-0.00236075
0.00434127
-0.00440014
0.00614502
-0.00372998
-0.00053656
-0.000191653
-0.0125925
0.00868181
-0.0126289
0.0260962
0.0160123
0.0691096
0.083693
0.136928
0.187184
0.233096
0.308251
0.356883
0.406086
0.470894
0.452837
0.511613
0.512475
0.454261
0.516515
0.504778
0.456566
0.479182
0.468478
0.504483
0.473192
0.527886
0.512845
0.446734
0.497894
0.527267
0.537367
0.426065
0.567679
0.487758
0.539739
0.44073
0.558839
0.478211
0.445829
0.549281
0.498661
0.52371
0.534633
0.572579
0.449671
0.501611
0.488469
0.49692
0.449172
0.51273
0.505124
0.434564
0.602683
0.4819
0.519184
0.477516
0.463063
0.533906
0.508824
0.525509
0.513125
0.502849
0.603404
0.199825
)
;

boundaryField
{
    inlet
    {
        type            fixedValue;
        value           uniform 0;
    }
    outlet
    {
        type            zeroGradient;
    }
    yzfaces
    {
        type            empty;
    }
}


// ************************************************************************* //
