/*--------------------------------*- C++ -*----------------------------------*\
| =========                 |                                                 |
| \\      /  F ield         | foam-extend: Open Source CFD                    |
|  \\    /   O peration     | Version:     5.0                                |
|   \\  /    A nd           | Web:         http://www.foam-extend.org         |
|    \\/     M anipulation  |                                                 |
\*---------------------------------------------------------------------------*/
FoamFile
{
    version     2.0;
    format      ascii;
    class       volScalarField;
    location    "9";
    object      YH2O;
}
// * * * * * * * * * * * * * * * * * * * * * * * * * * * * * * * * * * * * * //

dimensions      [0 0 0 0 0 0 0];

internalField   nonuniform List<scalar> 
100
(
-0.00378494
0.00176563
0.00533214
-0.00154262
0.00274358
-0.00575176
0.00566599
-0.00417788
0.00178824
-0.000107634
-0.00517325
0.00474869
-0.00463721
0.00581791
0.000235451
0.00597351
0.000791963
0.00278672
0.000913389
0.00392368
-0.00174095
0.00353144
-0.00145696
0.00221911
0.00237209
-0.00139272
0.00246986
-0.00397241
0.00401973
-0.00346752
0.00191833
0.000808562
0.0012417
-0.000995641
-0.000417014
-1.55045e-05
0.00183122
0.000471608
0.00018622
0.00102367
-0.00230846
0.000572008
0.000368117
0.00127219
-0.00194132
0.0017631
0.000409279
0.000703375
0.00115533
-0.000674858
0.00151056
0.00145053
-0.00115006
0.000419958
0.00133111
-0.000852861
0.000560148
0.00166378
0.0031521
0.000942752
0.000716313
-0.00263088
-0.00161485
-0.00245259
-0.00160904
-0.0032766
-0.00110872
-0.00298125
-0.00360184
-0.00135908
-0.00412719
-0.00107153
-0.00380016
-0.00127947
-0.00255605
-0.00163193
-0.00070984
-0.0021346
-0.00187414
-0.00294825
-4.58902e-06
-0.000734823
0.00089028
-0.000666776
0.000855431
-0.00196523
0.00163255
-0.00284051
0.00293163
-0.00191641
0.00131656
-0.0011201
0.00172842
-0.00207661
-0.00129105
3.10574e-05
0.000714604
0.000132818
-0.000374947
3.12597e-05
)
;

boundaryField
{
    inlet
    {
        type            calculated;
        value           uniform 0;
    }
    outlet
    {
        type            calculated;
        value           uniform 3.12597e-05;
    }
    yzfaces
    {
        type            empty;
    }
}


// ************************************************************************* //
