/*--------------------------------*- C++ -*----------------------------------*\
| =========                 |                                                 |
| \\      /  F ield         | foam-extend: Open Source CFD                    |
|  \\    /   O peration     | Version:     5.0                                |
|   \\  /    A nd           | Web:         http://www.foam-extend.org         |
|    \\/     M anipulation  |                                                 |
\*---------------------------------------------------------------------------*/
FoamFile
{
    version     2.0;
    format      ascii;
    class       volScalarField;
    location    "9";
    object      alpha.gas;
}
// * * * * * * * * * * * * * * * * * * * * * * * * * * * * * * * * * * * * * //

dimensions      [0 0 0 0 0 0 0];

internalField   nonuniform List<scalar> 
100
(
0.0916027
0.0904072
0.088985
0.0877816
0.0865716
0.0853334
0.0842019
0.0831184
0.0820816
0.0808828
0.08003
0.0791601
0.0781567
0.0771998
0.0763533
0.0755255
0.0746913
0.0738585
0.0729593
0.0721253
0.0712356
0.0704682
0.0697491
0.0688149
0.0680419
0.0672914
0.0666276
0.0659837
0.0653175
0.0646315
0.0639599
0.0633285
0.0626942
0.062139
0.061495
0.0609113
0.0602692
0.0597125
0.059198
0.0586836
0.058245
0.0577101
0.0572745
0.0568007
0.0564437
0.0559805
0.0555184
0.0550673
0.0545735
0.0541606
0.053783
0.0533404
0.0529438
0.0525016
0.0521934
0.0517389
0.0513789
0.0510303
0.050665
0.0503481
0.0499447
0.0495911
0.0493363
0.0489826
0.0486747
0.0483892
0.0480587
0.0477719
0.0474673
0.0471977
0.046899
0.0466096
0.0463652
0.0461007
0.0458042
0.0455026
0.0452526
0.0449556
0.0446757
0.0443898
0.044132
0.043858
0.0436339
0.0433375
0.0431019
0.0428532
0.0426446
0.0424228
0.0422204
0.0419686
0.0417691
0.0415529
0.0413292
0.0411326
0.0408959
0.0407316
0.0405555
0.0403864
0.0402526
0.0402065
)
;

boundaryField
{
    inlet
    {
        type            fixedValue;
        value           uniform 0.2;
    }
    outlet
    {
        type            zeroGradient;
    }
    yzfaces
    {
        type            empty;
    }
}


// ************************************************************************* //
