/*--------------------------------*- C++ -*----------------------------------*\
| =========                 |                                                 |
| \\      /  F ield         | foam-extend: Open Source CFD                    |
|  \\    /   O peration     | Version:     5.0                                |
|   \\  /    A nd           | Web:         http://www.foam-extend.org         |
|    \\/     M anipulation  |                                                 |
\*---------------------------------------------------------------------------*/
FoamFile
{
    version     2.0;
    format      ascii;
    class       volScalarField;
    location    "9";
    object      CO2.gas;
}
// * * * * * * * * * * * * * * * * * * * * * * * * * * * * * * * * * * * * * //

dimensions      [0 0 0 0 0 0 0];

internalField   nonuniform List<scalar> 
100
(
0.0915891
0.0904315
0.0889501
0.0877577
0.0865623
0.0853112
0.0842352
0.0831294
0.0821514
0.0808662
0.0800381
0.0791933
0.0781374
0.0771469
0.0763567
0.0755463
0.0747175
0.0738961
0.0729473
0.0721416
0.0712164
0.0704582
0.0697581
0.0687884
0.0680354
0.0672644
0.0666188
0.0659944
0.0653202
0.0646153
0.0639425
0.0633158
0.0626827
0.062149
0.061497
0.0609222
0.0602659
0.0597149
0.0591947
0.0586793
0.0582584
0.0577041
0.0572744
0.0567876
0.0564609
0.0559893
0.0555235
0.0550634
0.0545612
0.0541553
0.0537866
0.0533321
0.0529459
0.0524893
0.0522103
0.051735
0.0513801
0.0510309
0.0506589
0.0503557
0.0499364
0.0495833
0.0493491
0.0489798
0.0486762
0.0483943
0.0480539
0.047775
0.0474626
0.0471965
0.0468951
0.0465992
0.0463698
0.0461069
0.0458047
0.045499
0.0452537
0.0449532
0.0446793
0.0443868
0.0441315
0.0438535
0.0436421
0.0433354
0.0431003
0.0428483
0.0426459
0.0424218
0.0422264
0.0419656
0.041772
0.0415562
0.0413251
0.0411317
0.0408912
0.0407327
0.0405571
0.0403848
0.0402477
0.0402124
)
;

boundaryField
{
    inlet
    {
        type            fixedValue;
        value           uniform 0.2;
    }
    outlet
    {
        type            zeroGradient;
    }
    yzfaces
    {
        type            empty;
    }
}


// ************************************************************************* //
