/*--------------------------------*- C++ -*----------------------------------*\
| =========                 |                                                 |
| \\      /  F ield         | foam-extend: Open Source CFD                    |
|  \\    /   O peration     | Version:     5.0                                |
|   \\  /    A nd           | Web:         http://www.foam-extend.org         |
|    \\/     M anipulation  |                                                 |
\*---------------------------------------------------------------------------*/
FoamFile
{
    version     2.0;
    format      ascii;
    class       surfaceScalarField;
    location    "9";
    object      phi;
}
// * * * * * * * * * * * * * * * * * * * * * * * * * * * * * * * * * * * * * //

dimensions      [0 3 -1 0 0 0 0];

internalField   nonuniform List<scalar> 
99
(
1.2266e-06
1.2216e-06
1.22381e-06
1.22204e-06
1.22733e-06
1.23037e-06
1.22459e-06
1.23278e-06
1.22341e-06
1.2279e-06
1.22479e-06
1.22654e-06
1.22665e-06
1.23448e-06
1.2313e-06
1.22928e-06
1.22415e-06
1.2188e-06
1.22667e-06
1.21741e-06
1.22145e-06
1.22045e-06
1.22113e-06
1.22358e-06
1.21906e-06
1.22549e-06
1.2266e-06
1.22633e-06
1.22368e-06
1.226e-06
1.22768e-06
1.22904e-06
1.23165e-06
1.2303e-06
1.2305e-06
1.22694e-06
1.22858e-06
1.22783e-06
1.22806e-06
1.22823e-06
1.22473e-06
1.22506e-06
1.22557e-06
1.22783e-06
1.22413e-06
1.22463e-06
1.22563e-06
1.22388e-06
1.22531e-06
1.22673e-06
1.22378e-06
1.22805e-06
1.22549e-06
1.22827e-06
1.22404e-06
1.22542e-06
1.22492e-06
1.22466e-06
1.22656e-06
1.22629e-06
1.22754e-06
1.22895e-06
1.2244e-06
1.22566e-06
1.22414e-06
1.22276e-06
1.22522e-06
1.22365e-06
1.22577e-06
1.22426e-06
1.22591e-06
1.22862e-06
1.22721e-06
1.22633e-06
1.22649e-06
1.22825e-06
1.22783e-06
1.22893e-06
1.22731e-06
1.22789e-06
1.22628e-06
1.23049e-06
1.22657e-06
1.22753e-06
1.22721e-06
1.22827e-06
1.22755e-06
1.22923e-06
1.22644e-06
1.22794e-06
1.22762e-06
1.22559e-06
1.22658e-06
1.22503e-06
1.22649e-06
1.22606e-06
1.22726e-06
1.22718e-06
1.229e-06
)
;

boundaryField
{
    inlet
    {
        type            calculated;
        value           uniform -1.225e-06;
    }
    outlet
    {
        type            calculated;
        value           uniform 1.22808e-06;
    }
    yzfaces
    {
        type            empty;
    }
}


// ************************************************************************* //
