/*--------------------------------*- C++ -*----------------------------------*\
| =========                 |                                                 |
| \\      /  F ield         | foam-extend: Open Source CFD                    |
|  \\    /   O peration     | Version:     5.0                                |
|   \\  /    A nd           | Web:         http://www.foam-extend.org         |
|    \\/     M anipulation  |                                                 |
\*---------------------------------------------------------------------------*/
FoamFile
{
    version     2.0;
    format      ascii;
    class       volVectorField;
    location    "9";
    object      U.gas;
}
// * * * * * * * * * * * * * * * * * * * * * * * * * * * * * * * * * * * * * //

dimensions      [0 1 -1 0 0 0 0];

internalField   nonuniform List<vector> 
100
(
(0.0109098 0 0)
(0.0110421 0 0)
(0.0111934 0 0)
(0.0113123 0 0)
(0.0114758 0 0)
(0.0116568 0 0)
(0.0117676 0 0)
(0.0119059 0 0)
(0.0120475 0 0)
(0.0121622 0 0)
(0.0122413 0 0)
(0.0123708 0 0)
(0.0125313 0 0)
(0.0126872 0 0)
(0.0128159 0 0)
(0.0129083 0 0)
(0.0129955 0 0)
(0.0130745 0 0)
(0.0132257 0 0)
(0.0133451 0 0)
(0.0134488 0 0)
(0.0135626 0 0)
(0.0136994 0 0)
(0.0138816 0 0)
(0.01397 0 0)
(0.0140917 0 0)
(0.0142326 0 0)
(0.0143499 0 0)
(0.0144567 0 0)
(0.0145779 0 0)
(0.0147142 0 0)
(0.0148405 0 0)
(0.0149705 0 0)
(0.0150823 0 0)
(0.0152032 0 0)
(0.0152915 0 0)
(0.0154017 0 0)
(0.0154947 0 0)
(0.0155843 0 0)
(0.0156746 0 0)
(0.0157419 0 0)
(0.0158319 0 0)
(0.0159108 0 0)
(0.0160144 0 0)
(0.0160729 0 0)
(0.0161689 0 0)
(0.0162725 0 0)
(0.0163664 0 0)
(0.0164624 0 0)
(0.0165452 0 0)
(0.0166192 0 0)
(0.0167295 0 0)
(0.0168237 0 0)
(0.0169061 0 0)
(0.0169592 0 0)
(0.0170578 0 0)
(0.0171183 0 0)
(0.0171897 0 0)
(0.0172752 0 0)
(0.0173621 0 0)
(0.0174731 0 0)
(0.0175389 0 0)
(0.0175676 0 0)
(0.0176411 0 0)
(0.0176914 0 0)
(0.0177375 0 0)
(0.0178226 0 0)
(0.0178856 0 0)
(0.0179581 0 0)
(0.0180207 0 0)
(0.0180967 0 0)
(0.0181814 0 0)
(0.0182371 0 0)
(0.018294 0 0)
(0.0183675 0 0)
(0.0184426 0 0)
(0.0185042 0 0)
(0.018588 0 0)
(0.0186463 0 0)
(0.0187002 0 0)
(0.0187455 0 0)
(0.0188231 0 0)
(0.0188779 0 0)
(0.0189331 0 0)
(0.0189746 0 0)
(0.0190333 0 0)
(0.019074 0 0)
(0.019133 0 0)
(0.0191759 0 0)
(0.0192278 0 0)
(0.0192677 0 0)
(0.0193065 0 0)
(0.0193466 0 0)
(0.0193847 0 0)
(0.0194342 0 0)
(0.0194581 0 0)
(0.019509 0 0)
(0.0195459 0 0)
(0.0195556 0 0)
(0.0195313 0 0)
)
;

boundaryField
{
    inlet
    {
        type            fixedValue;
        value           uniform (0.005 0 0);
    }
    outlet
    {
        type            zeroGradient;
    }
    yzfaces
    {
        type            empty;
    }
}


// ************************************************************************* //
