/*--------------------------------*- C++ -*----------------------------------*\
| =========                 |                                                 |
| \\      /  F ield         | foam-extend: Open Source CFD                    |
|  \\    /   O peration     | Version:     5.0                                |
|   \\  /    A nd           | Web:         http://www.foam-extend.org         |
|    \\/     M anipulation  |                                                 |
\*---------------------------------------------------------------------------*/
FoamFile
{
    version     2.0;
    format      ascii;
    class       volVectorField;
    location    "9";
    object      U.water;
}
// * * * * * * * * * * * * * * * * * * * * * * * * * * * * * * * * * * * * * //

dimensions      [0 1 -1 0 0 0 0];

internalField   nonuniform List<vector> 
100
(
(1.1858e-05 0 0)
(8.94247e-06 0 0)
(1.87946e-05 0 0)
(4.71817e-05 0 0)
(5.51883e-05 0 0)
(7.35366e-05 0 0)
(9.64497e-05 0 0)
(0.000114704 0 0)
(0.000115747 0 0)
(0.000141219 0 0)
(0.00017856 0 0)
(0.000175997 0 0)
(0.000179692 0 0)
(0.000204355 0 0)
(0.000225678 0 0)
(0.00023629 0 0)
(0.000245388 0 0)
(0.000249409 0 0)
(0.000261435 0 0)
(0.000274177 0 0)
(0.000290574 0 0)
(0.000316191 0 0)
(0.00031511 0 0)
(0.000324573 0 0)
(0.000352009 0 0)
(0.000373184 0 0)
(0.000394149 0 0)
(0.000405433 0 0)
(0.00041379 0 0)
(0.000426088 0 0)
(0.000443861 0 0)
(0.000460345 0 0)
(0.000479221 0 0)
(0.000490938 0 0)
(0.000501701 0 0)
(0.000514827 0 0)
(0.000529626 0 0)
(0.000551676 0 0)
(0.000567098 0 0)
(0.000585406 0 0)
(0.000594837 0 0)
(0.000606211 0 0)
(0.000623412 0 0)
(0.000640788 0 0)
(0.00065191 0 0)
(0.000655131 0 0)
(0.000669145 0 0)
(0.000679927 0 0)
(0.000696304 0 0)
(0.000718153 0 0)
(0.000727518 0 0)
(0.000739068 0 0)
(0.000753018 0 0)
(0.000772456 0 0)
(0.000783315 0 0)
(0.000790673 0 0)
(0.000811595 0 0)
(0.000823194 0 0)
(0.000838725 0 0)
(0.000848745 0 0)
(0.000858855 0 0)
(0.000883445 0 0)
(0.000893711 0 0)
(0.00090002 0 0)
(0.000917185 0 0)
(0.000926257 0 0)
(0.000938822 0 0)
(0.000953232 0 0)
(0.000965948 0 0)
(0.000978244 0 0)
(0.00098857 0 0)
(0.0010067 0 0)
(0.00102069 0 0)
(0.00102715 0 0)
(0.00103662 0 0)
(0.00105342 0 0)
(0.00106703 0 0)
(0.00107792 0 0)
(0.00109134 0 0)
(0.00110551 0 0)
(0.00111906 0 0)
(0.00113497 0 0)
(0.0011458 0 0)
(0.00115636 0 0)
(0.00117334 0 0)
(0.00118743 0 0)
(0.00120093 0 0)
(0.00121268 0 0)
(0.00122134 0 0)
(0.00123281 0 0)
(0.001248 0 0)
(0.00125636 0 0)
(0.0012687 0 0)
(0.00127975 0 0)
(0.00129376 0 0)
(0.00130899 0 0)
(0.00131808 0 0)
(0.00133088 0 0)
(0.00134812 0 0)
(0.00136178 0 0)
)
;

boundaryField
{
    inlet
    {
        type            fixedValue;
        value           uniform (0 0 0);
    }
    outlet
    {
        type            zeroGradient;
    }
    yzfaces
    {
        type            empty;
    }
}


// ************************************************************************* //
