/*--------------------------------*- C++ -*----------------------------------*\
| =========                 |                                                 |
| \\      /  F ield         | foam-extend: Open Source CFD                    |
|  \\    /   O peration     | Version:     5.0                                |
|   \\  /    A nd           | Web:         http://www.foam-extend.org         |
|    \\/     M anipulation  |                                                 |
\*---------------------------------------------------------------------------*/
FoamFile
{
    version     2.0;
    format      ascii;
    class       volScalarField;
    location    "4";
    object      YH2O;
}
// * * * * * * * * * * * * * * * * * * * * * * * * * * * * * * * * * * * * * //

dimensions      [0 0 0 0 0 0 0];

internalField   nonuniform List<scalar> 
100
(
0.984101
1.01663
0.980285
1.02768
0.97657
1.00984
1.00192
0.993544
1.00092
1.01158
0.978996
1.01655
1.00292
0.971856
1.04806
0.941855
1.05784
0.953339
1.0229
0.997858
0.939944
0.95167
0.784383
0.783804
0.585854
0.484535
0.264167
0.281655
0.088317
0.0722563
-1.14239e-05
0.0500529
0.00796531
0.0263443
-0.0183078
0.00890796
0.0104484
-0.00900211
0.00354052
0.080229
-0.0508419
0.115845
-0.0482222
0.0715833
-0.0602228
0.0351155
-0.0273548
-0.0258077
-0.00656098
0.022421
-0.0711603
-0.00551885
-0.0567163
0.0285111
-0.0209428
-0.020904
0.00543644
-0.00510841
0.0297771
0.0216103
-0.00876488
0.0386714
-0.0371508
0.00848456
-0.0230148
-0.00707018
0.0504597
-0.00330521
0.0336608
-0.0387305
-0.0147825
0.00621983
-0.0128223
0.0564153
-0.0747631
0.0711136
-0.0564637
0.00126027
0.00980175
-0.0122185
-0.0312608
0.0210708
-0.0215556
-0.0151258
-0.0232032
0.0137083
-0.0177956
0.0512944
-0.02567
0.0683275
-0.0144151
0.0413509
-0.0123625
0.0408862
0.0025428
0.0184752
0.030719
-0.0301835
0.000305084
0.000125229
)
;

boundaryField
{
    inlet
    {
        type            calculated;
        value           uniform 1;
    }
    outlet
    {
        type            calculated;
        value           uniform 0.000125229;
    }
    yzfaces
    {
        type            empty;
    }
}


// ************************************************************************* //
