/*--------------------------------*- C++ -*----------------------------------*\
| =========                 |                                                 |
| \\      /  F ield         | foam-extend: Open Source CFD                    |
|  \\    /   O peration     | Version:     5.0                                |
|   \\  /    A nd           | Web:         http://www.foam-extend.org         |
|    \\/     M anipulation  |                                                 |
\*---------------------------------------------------------------------------*/
FoamFile
{
    version     2.0;
    format      ascii;
    class       volVectorField;
    location    "2";
    object      U.gas;
}
// * * * * * * * * * * * * * * * * * * * * * * * * * * * * * * * * * * * * * //

dimensions      [0 1 -1 0 0 0 0];

internalField   nonuniform List<vector> 
100
(
(0.000457526 0 0)
(0.00104366 0 0)
(0.00164294 0 0)
(0.00231983 0 0)
(0.00315563 0 0)
(0.0043038 0 0)
(0.00574201 0 0)
(0.00611123 0 0)
(0.00568063 0 0)
(0.00548651 0 0)
(0.00539406 0 0)
(0.00528877 0 0)
(0.00519335 0 0)
(0.00515143 0 0)
(0.00516229 0 0)
(0.0051658 0 0)
(0.00514086 0 0)
(0.00516063 0 0)
(0.00522381 0 0)
(0.00525227 0 0)
(0.00524192 0 0)
(0.00517372 0 0)
(0.00520924 0 0)
(0.00518867 0 0)
(0.00514223 0 0)
(0.00515497 0 0)
(0.00512491 0 0)
(0.00515499 0 0)
(0.00517011 0 0)
(0.00516846 0 0)
(0.00515143 0 0)
(0.00508771 0 0)
(0.00505603 0 0)
(0.00503961 0 0)
(0.00502501 0 0)
(0.00507285 0 0)
(0.00504056 0 0)
(0.00502644 0 0)
(0.0050084 0 0)
(0.00492905 0 0)
(0.0049285 0 0)
(0.004927 0 0)
(0.00491349 0 0)
(0.00489771 0 0)
(0.00485015 0 0)
(0.00486779 0 0)
(0.00489939 0 0)
(0.0049146 0 0)
(0.00499375 0 0)
(0.00502593 0 0)
(0.00497605 0 0)
(0.00500978 0 0)
(0.00502245 0 0)
(0.00491286 0 0)
(0.00489919 0 0)
(0.00493237 0 0)
(0.00491585 0 0)
(0.00492984 0 0)
(0.00491301 0 0)
(0.00486612 0 0)
(0.00489671 0 0)
(0.00496191 0 0)
(0.00501025 0 0)
(0.00502516 0 0)
(0.00505681 0 0)
(0.00508756 0 0)
(0.00510361 0 0)
(0.00503656 0 0)
(0.00505559 0 0)
(0.00513469 0 0)
(0.00513695 0 0)
(0.00520146 0 0)
(0.00521646 0 0)
(0.00523146 0 0)
(0.00527993 0 0)
(0.00529493 0 0)
(0.00527787 0 0)
(0.00521603 0 0)
(0.00518444 0 0)
(0.00515218 0 0)
(0.00515282 0 0)
(0.00516843 0 0)
(0.00516833 0 0)
(0.00510231 0 0)
(0.00510753 0 0)
(0.00518623 0 0)
(0.00518512 0 0)
(0.00515078 0 0)
(0.00511978 0 0)
(0.0051361 0 0)
(0.00515145 0 0)
(0.00515308 0 0)
(0.00515379 0 0)
(0.0051564 0 0)
(0.00510541 0 0)
(0.00512629 0 0)
(0.00514116 0 0)
(0.00515916 0 0)
(0.00516039 0 0)
(0.00511608 0 0)
)
;

boundaryField
{
    inlet
    {
        type            fixedValue;
        value           uniform (0 0 0);
    }
    outlet
    {
        type            zeroGradient;
    }
    yzfaces
    {
        type            empty;
    }
}


// ************************************************************************* //
