/*--------------------------------*- C++ -*----------------------------------*\
| =========                 |                                                 |
| \\      /  F ield         | foam-extend: Open Source CFD                    |
|  \\    /   O peration     | Version:     5.0                                |
|   \\  /    A nd           | Web:         http://www.foam-extend.org         |
|    \\/     M anipulation  |                                                 |
\*---------------------------------------------------------------------------*/
FoamFile
{
    version     2.0;
    format      ascii;
    class       volScalarField;
    location    "6";
    object      alpha.gas;
}
// * * * * * * * * * * * * * * * * * * * * * * * * * * * * * * * * * * * * * //

dimensions      [0 0 0 0 0 0 0];

internalField   nonuniform List<scalar> 
100
(
0.0863668
0.0848596
0.0835204
0.0820791
0.0807004
0.0793106
0.0780104
0.0766963
0.075411
0.0742699
0.0730421
0.0718548
0.0706965
0.0696278
0.0685153
0.0676264
0.0666242
0.0657085
0.0647566
0.063827
0.0629575
0.0621959
0.0614255
0.0605675
0.0598402
0.0590636
0.0582911
0.0575575
0.0567886
0.0561409
0.0554091
0.0548469
0.0541894
0.0536509
0.0531158
0.0525101
0.0519491
0.0514034
0.0508851
0.0503357
0.049823
0.0493552
0.0488217
0.0484122
0.0479517
0.0474976
0.0470863
0.0466444
0.0462395
0.0458247
0.0454032
0.0449908
0.0445882
0.044211
0.0438398
0.0434999
0.0431287
0.0427696
0.0424094
0.0420907
0.0417593
0.0414357
0.0410939
0.0408064
0.0404571
0.0401638
0.0398583
0.0395663
0.0392893
0.0389814
0.0387091
0.0383965
0.038133
0.0378424
0.0375712
0.0373132
0.037024
0.0367297
0.0364916
0.0362245
0.0359762
0.0357105
0.0354649
0.0352287
0.0350035
0.0347425
0.0345063
0.0342365
0.0339866
0.033748
0.0334846
0.0332448
0.0330241
0.0327911
0.0325539
0.0323403
0.0320978
0.0319131
0.0317443
0.0316307
)
;

boundaryField
{
    inlet
    {
        type            fixedValue;
        value           uniform 0.2;
    }
    outlet
    {
        type            zeroGradient;
    }
    yzfaces
    {
        type            empty;
    }
}


// ************************************************************************* //
