/*--------------------------------*- C++ -*----------------------------------*\
| =========                 |                                                 |
| \\      /  F ield         | foam-extend: Open Source CFD                    |
|  \\    /   O peration     | Version:     5.0                                |
|   \\  /    A nd           | Web:         http://www.foam-extend.org         |
|    \\/     M anipulation  |                                                 |
\*---------------------------------------------------------------------------*/
FoamFile
{
    version     2.0;
    format      ascii;
    class       volScalarField;
    location    "6";
    object      CO2.gas;
}
// * * * * * * * * * * * * * * * * * * * * * * * * * * * * * * * * * * * * * //

dimensions      [0 0 0 0 0 0 0];

internalField   nonuniform List<scalar> 
100
(
0.0431823
0.0424226
0.0417864
0.0410299
0.0403276
0.0396559
0.0390109
0.0383761
0.0377056
0.0371593
0.0365296
0.0359074
0.0353088
0.0347965
0.0342413
0.0338317
0.0333126
0.0328374
0.0323455
0.0318908
0.0314559
0.0310833
0.0307182
0.0302889
0.0299306
0.0295414
0.0291498
0.0287865
0.0283822
0.0280572
0.0276643
0.0273958
0.0270622
0.0268038
0.0265447
0.0262355
0.0259604
0.0256873
0.0254362
0.0251605
0.0249036
0.0246732
0.0244065
0.0242051
0.0239728
0.0237356
0.0235379
0.0233161
0.0231153
0.0229107
0.0226916
0.0224832
0.0222833
0.0221
0.02191
0.0217346
0.0215391
0.0213636
0.0211796
0.0210247
0.0208598
0.0207065
0.0205378
0.020398
0.0202249
0.0200815
0.01993
0.0197835
0.0196453
0.0194808
0.0193449
0.0191943
0.0190698
0.0189188
0.0187794
0.0186491
0.0185025
0.0183488
0.0182345
0.0180962
0.0179747
0.0178374
0.0177188
0.0176006
0.0174884
0.0173516
0.0172417
0.017108
0.0169851
0.0168684
0.0167339
0.0166173
0.0165077
0.016391
0.0162742
0.0161728
0.0160502
0.0159597
0.0158744
0.0158201
)
;

boundaryField
{
    inlet
    {
        type            fixedValue;
        value           uniform 0.1;
    }
    outlet
    {
        type            zeroGradient;
    }
    yzfaces
    {
        type            empty;
    }
}


// ************************************************************************* //
