/*--------------------------------*- C++ -*----------------------------------*\
| =========                 |                                                 |
| \\      /  F ield         | foam-extend: Open Source CFD                    |
|  \\    /   O peration     | Version:     5.0                                |
|   \\  /    A nd           | Web:         http://www.foam-extend.org         |
|    \\/     M anipulation  |                                                 |
\*---------------------------------------------------------------------------*/
FoamFile
{
    version     2.0;
    format      ascii;
    class       volScalarField;
    location    "6";
    object      H2O.gas;
}
// * * * * * * * * * * * * * * * * * * * * * * * * * * * * * * * * * * * * * //

dimensions      [0 0 0 0 0 0 0];

internalField   nonuniform List<scalar> 
100
(
0.0431841
0.0424264
0.0417808
0.0410216
0.0403557
0.0396631
0.0390181
0.0383437
0.0377197
0.0371548
0.0365264
0.0359541
0.0353694
0.0348252
0.0342306
0.0338019
0.0333087
0.0328744
0.0324096
0.0319259
0.031489
0.0311172
0.0307209
0.0302726
0.0299188
0.0295337
0.029146
0.0287805
0.0283979
0.0280893
0.0277227
0.0274483
0.0271102
0.0268407
0.0265753
0.0262675
0.0259891
0.0257213
0.0254588
0.0251731
0.0249133
0.0246791
0.024403
0.024212
0.0239892
0.0237633
0.0235522
0.02333
0.0231279
0.0229216
0.0227125
0.0225104
0.0223057
0.0221126
0.0219257
0.0217681
0.0215914
0.021406
0.0212279
0.0210662
0.0208985
0.0207311
0.0205543
0.0204152
0.0202298
0.020084
0.0199265
0.0197819
0.0196477
0.0194981
0.0193656
0.0191984
0.0190629
0.01892
0.0187872
0.0186656
0.0185213
0.0183763
0.0182614
0.0181283
0.0180027
0.017869
0.0177439
0.0176276
0.0175179
0.0173882
0.0172681
0.0171265
0.0170007
0.016881
0.0167475
0.0166247
0.0165172
0.0163986
0.0162783
0.0161698
0.0160443
0.0159539
0.0158689
0.0158103
)
;

boundaryField
{
    inlet
    {
        type            fixedValue;
        value           uniform 0.1;
    }
    outlet
    {
        type            zeroGradient;
    }
    yzfaces
    {
        type            empty;
    }
}


// ************************************************************************* //
