/*--------------------------------*- C++ -*----------------------------------*\
| =========                 |                                                 |
| \\      /  F ield         | foam-extend: Open Source CFD                    |
|  \\    /   O peration     | Version:     5.0                                |
|   \\  /    A nd           | Web:         http://www.foam-extend.org         |
|    \\/     M anipulation  |                                                 |
\*---------------------------------------------------------------------------*/
FoamFile
{
    version     2.0;
    format      ascii;
    class       surfaceScalarField;
    location    "6";
    object      phi;
}
// * * * * * * * * * * * * * * * * * * * * * * * * * * * * * * * * * * * * * //

dimensions      [0 3 -1 0 0 0 0];

internalField   nonuniform List<scalar> 
99
(
1.22481e-06
1.22917e-06
1.21945e-06
1.22356e-06
1.23047e-06
1.22826e-06
1.22567e-06
1.22425e-06
1.22562e-06
1.21855e-06
1.22024e-06
1.22124e-06
1.22155e-06
1.21932e-06
1.23027e-06
1.22519e-06
1.22567e-06
1.22448e-06
1.22318e-06
1.22351e-06
1.22581e-06
1.22302e-06
1.22182e-06
1.22475e-06
1.22338e-06
1.22345e-06
1.2223e-06
1.2184e-06
1.22274e-06
1.21895e-06
1.22575e-06
1.22354e-06
1.22694e-06
1.229e-06
1.22631e-06
1.22965e-06
1.22953e-06
1.22851e-06
1.22507e-06
1.22561e-06
1.22653e-06
1.22659e-06
1.23302e-06
1.23057e-06
1.22788e-06
1.22795e-06
1.22792e-06
1.22733e-06
1.22734e-06
1.22559e-06
1.22605e-06
1.22484e-06
1.22429e-06
1.22226e-06
1.22438e-06
1.22279e-06
1.22165e-06
1.22244e-06
1.22146e-06
1.22188e-06
1.22193e-06
1.2213e-06
1.22254e-06
1.21935e-06
1.2207e-06
1.21991e-06
1.22087e-06
1.22145e-06
1.2196e-06
1.22036e-06
1.21977e-06
1.21997e-06
1.21967e-06
1.22086e-06
1.22316e-06
1.22248e-06
1.22157e-06
1.22563e-06
1.22268e-06
1.2234e-06
1.22099e-06
1.2234e-06
1.22371e-06
1.22385e-06
1.22203e-06
1.22524e-06
1.22279e-06
1.22451e-06
1.2244e-06
1.22357e-06
1.22491e-06
1.22642e-06
1.22513e-06
1.22653e-06
1.22693e-06
1.22524e-06
1.22637e-06
1.22585e-06
1.22674e-06
)
;

boundaryField
{
    inlet
    {
        type            calculated;
        value           uniform -1.225e-06;
    }
    outlet
    {
        type            calculated;
        value           uniform 1.22615e-06;
    }
    yzfaces
    {
        type            empty;
    }
}


// ************************************************************************* //
