/*--------------------------------*- C++ -*----------------------------------*\
| =========                 |                                                 |
| \\      /  F ield         | foam-extend: Open Source CFD                    |
|  \\    /   O peration     | Version:     5.0                                |
|   \\  /    A nd           | Web:         http://www.foam-extend.org         |
|    \\/     M anipulation  |                                                 |
\*---------------------------------------------------------------------------*/
FoamFile
{
    version     2.0;
    format      ascii;
    class       volVectorField;
    location    "6";
    object      U.gas;
}
// * * * * * * * * * * * * * * * * * * * * * * * * * * * * * * * * * * * * * //

dimensions      [0 1 -1 0 0 0 0];

internalField   nonuniform List<vector> 
100
(
(0.0115665 0 0)
(0.011752 0 0)
(0.0118886 0 0)
(0.0120533 0 0)
(0.0122832 0 0)
(0.0124883 0 0)
(0.0126377 0 0)
(0.0128046 0 0)
(0.0129713 0 0)
(0.0131037 0 0)
(0.0132701 0 0)
(0.0134605 0 0)
(0.0136368 0 0)
(0.0137928 0 0)
(0.0140018 0 0)
(0.0141673 0 0)
(0.0143208 0 0)
(0.0144687 0 0)
(0.0146278 0 0)
(0.0147788 0 0)
(0.0149272 0 0)
(0.0150483 0 0)
(0.0151863 0 0)
(0.0153569 0 0)
(0.0154914 0 0)
(0.015646 0 0)
(0.0157855 0 0)
(0.0158997 0 0)
(0.0160466 0 0)
(0.0161727 0 0)
(0.0163335 0 0)
(0.0164614 0 0)
(0.0166096 0 0)
(0.0167353 0 0)
(0.0168598 0 0)
(0.0170045 0 0)
(0.0171366 0 0)
(0.0172422 0 0)
(0.0173262 0 0)
(0.0174285 0 0)
(0.0175355 0 0)
(0.0176489 0 0)
(0.0178092 0 0)
(0.0179095 0 0)
(0.0179909 0 0)
(0.0180653 0 0)
(0.018155 0 0)
(0.0182535 0 0)
(0.0183338 0 0)
(0.0184222 0 0)
(0.0185098 0 0)
(0.0185948 0 0)
(0.0186677 0 0)
(0.0187271 0 0)
(0.0188047 0 0)
(0.0188834 0 0)
(0.0189553 0 0)
(0.0190314 0 0)
(0.0191041 0 0)
(0.0191617 0 0)
(0.0192445 0 0)
(0.0193173 0 0)
(0.0193944 0 0)
(0.0194392 0 0)
(0.0195119 0 0)
(0.0195652 0 0)
(0.0196361 0 0)
(0.019705 0 0)
(0.0197577 0 0)
(0.0198198 0 0)
(0.0198775 0 0)
(0.0199471 0 0)
(0.0199909 0 0)
(0.0200657 0 0)
(0.020141 0 0)
(0.0202117 0 0)
(0.0202741 0 0)
(0.0203499 0 0)
(0.0203935 0 0)
(0.0204378 0 0)
(0.0204682 0 0)
(0.0205225 0 0)
(0.0205829 0 0)
(0.0206276 0 0)
(0.0206612 0 0)
(0.0207317 0 0)
(0.0207799 0 0)
(0.0208334 0 0)
(0.0208817 0 0)
(0.0209176 0 0)
(0.0209721 0 0)
(0.0210232 0 0)
(0.0210583 0 0)
(0.0211038 0 0)
(0.0211532 0 0)
(0.0211729 0 0)
(0.0212055 0 0)
(0.0212054 0 0)
(0.0212135 0 0)
(0.0211786 0 0)
)
;

boundaryField
{
    inlet
    {
        type            fixedValue;
        value           uniform (0.005 0 0);
    }
    outlet
    {
        type            zeroGradient;
    }
    yzfaces
    {
        type            empty;
    }
}


// ************************************************************************* //
