/*--------------------------------*- C++ -*----------------------------------*\
| =========                 |                                                 |
| \\      /  F ield         | foam-extend: Open Source CFD                    |
|  \\    /   O peration     | Version:     5.0                                |
|   \\  /    A nd           | Web:         http://www.foam-extend.org         |
|    \\/     M anipulation  |                                                 |
\*---------------------------------------------------------------------------*/
FoamFile
{
    version     2.0;
    format      ascii;
    class       volVectorField;
    location    "6";
    object      U.water;
}
// * * * * * * * * * * * * * * * * * * * * * * * * * * * * * * * * * * * * * //

dimensions      [0 1 -1 0 0 0 0];

internalField   nonuniform List<vector> 
100
(
(8.49539e-06 0 0)
(3.7852e-05 0 0)
(5.58076e-05 0 0)
(6.63759e-05 0 0)
(8.7058e-05 0 0)
(0.000108611 0 0)
(0.000129002 0 0)
(0.000145188 0 0)
(0.000174679 0 0)
(0.000194113 0 0)
(0.000205946 0 0)
(0.000228812 0 0)
(0.000255109 0 0)
(0.000275477 0 0)
(0.000307992 0 0)
(0.00033348 0 0)
(0.000346673 0 0)
(0.000367411 0 0)
(0.000382995 0 0)
(0.000406544 0 0)
(0.00043741 0 0)
(0.000461344 0 0)
(0.00046955 0 0)
(0.000491077 0 0)
(0.000515334 0 0)
(0.000529293 0 0)
(0.000551193 0 0)
(0.00056906 0 0)
(0.000594382 0 0)
(0.00061631 0 0)
(0.000641904 0 0)
(0.000667254 0 0)
(0.000686715 0 0)
(0.000714473 0 0)
(0.000726058 0 0)
(0.000742603 0 0)
(0.000766736 0 0)
(0.000787215 0 0)
(0.000803516 0 0)
(0.00082185 0 0)
(0.000847019 0 0)
(0.000864371 0 0)
(0.000889353 0 0)
(0.000913734 0 0)
(0.000925729 0 0)
(0.000946353 0 0)
(0.000964899 0 0)
(0.000982808 0 0)
(0.00100259 0 0)
(0.00101834 0 0)
(0.00103666 0 0)
(0.00105652 0 0)
(0.0010764 0 0)
(0.00109537 0 0)
(0.00111577 0 0)
(0.00113367 0 0)
(0.00114879 0 0)
(0.00116786 0 0)
(0.00118863 0 0)
(0.00120799 0 0)
(0.00122496 0 0)
(0.00124121 0 0)
(0.00126173 0 0)
(0.00127798 0 0)
(0.00129459 0 0)
(0.00131607 0 0)
(0.00133365 0 0)
(0.0013539 0 0)
(0.00136941 0 0)
(0.0013868 0 0)
(0.0014045 0 0)
(0.00142272 0 0)
(0.0014423 0 0)
(0.00146031 0 0)
(0.00148275 0 0)
(0.00150017 0 0)
(0.00151521 0 0)
(0.00153985 0 0)
(0.00156029 0 0)
(0.00157565 0 0)
(0.00159334 0 0)
(0.00161205 0 0)
(0.00163399 0 0)
(0.00165272 0 0)
(0.00166735 0 0)
(0.00168595 0 0)
(0.00170494 0 0)
(0.00172315 0 0)
(0.00174599 0 0)
(0.00176385 0 0)
(0.00178445 0 0)
(0.00180884 0 0)
(0.0018278 0 0)
(0.00184595 0 0)
(0.00186801 0 0)
(0.00188565 0 0)
(0.00190591 0 0)
(0.00192861 0 0)
(0.00194734 0 0)
(0.00196762 0 0)
)
;

boundaryField
{
    inlet
    {
        type            fixedValue;
        value           uniform (0 0 0);
    }
    outlet
    {
        type            zeroGradient;
    }
    yzfaces
    {
        type            empty;
    }
}


// ************************************************************************* //
