/*--------------------------------*- C++ -*----------------------------------*\
| =========                 |                                                 |
| \\      /  F ield         | foam-extend: Open Source CFD                    |
|  \\    /   O peration     | Version:     5.0                                |
|   \\  /    A nd           | Web:         http://www.foam-extend.org         |
|    \\/     M anipulation  |                                                 |
\*---------------------------------------------------------------------------*/
FoamFile
{
    version     2.0;
    format      ascii;
    class       surfaceScalarField;
    location    "10";
    object      phi;
}
// * * * * * * * * * * * * * * * * * * * * * * * * * * * * * * * * * * * * * //

dimensions      [0 3 -1 0 0 0 0];

internalField   nonuniform List<scalar> 
99
(
1.22236e-06
1.22802e-06
1.22791e-06
1.23209e-06
1.2337e-06
1.22526e-06
1.22734e-06
1.23479e-06
1.22489e-06
1.22852e-06
1.23507e-06
1.2298e-06
1.23305e-06
1.22485e-06
1.2239e-06
1.22288e-06
1.22635e-06
1.22559e-06
1.21761e-06
1.21703e-06
1.21995e-06
1.21739e-06
1.22283e-06
1.21749e-06
1.21854e-06
1.21418e-06
1.22374e-06
1.2165e-06
1.21921e-06
1.2198e-06
1.21854e-06
1.22462e-06
1.21939e-06
1.22042e-06
1.21635e-06
1.21552e-06
1.22092e-06
1.21251e-06
1.2209e-06
1.2182e-06
1.21722e-06
1.2155e-06
1.21422e-06
1.21527e-06
1.21692e-06
1.21889e-06
1.21575e-06
1.22214e-06
1.21647e-06
1.21803e-06
1.21377e-06
1.21301e-06
1.21002e-06
1.20966e-06
1.21466e-06
1.21287e-06
1.2109e-06
1.21255e-06
1.2141e-06
1.21157e-06
1.21469e-06
1.21008e-06
1.21173e-06
1.21378e-06
1.21609e-06
1.21095e-06
1.21508e-06
1.21468e-06
1.21508e-06
1.20969e-06
1.21603e-06
1.2104e-06
1.21465e-06
1.21356e-06
1.21216e-06
1.20954e-06
1.21377e-06
1.21309e-06
1.21263e-06
1.21098e-06
1.21204e-06
1.21462e-06
1.21275e-06
1.21321e-06
1.21257e-06
1.21278e-06
1.21358e-06
1.21483e-06
1.21181e-06
1.21666e-06
1.2179e-06
1.21516e-06
1.21948e-06
1.2166e-06
1.21845e-06
1.2193e-06
1.2178e-06
1.21773e-06
1.21436e-06
)
;

boundaryField
{
    inlet
    {
        type            calculated;
        value           uniform -1.225e-06;
    }
    outlet
    {
        type            calculated;
        value           uniform 1.21236e-06;
    }
    yzfaces
    {
        type            empty;
    }
}


// ************************************************************************* //
