/*--------------------------------*- C++ -*----------------------------------*\
| =========                 |                                                 |
| \\      /  F ield         | foam-extend: Open Source CFD                    |
|  \\    /   O peration     | Version:     5.0                                |
|   \\  /    A nd           | Web:         http://www.foam-extend.org         |
|    \\/     M anipulation  |                                                 |
\*---------------------------------------------------------------------------*/
FoamFile
{
    version     2.0;
    format      ascii;
    class       volVectorField;
    location    "10";
    object      U.gas;
}
// * * * * * * * * * * * * * * * * * * * * * * * * * * * * * * * * * * * * * //

dimensions      [0 1 -1 0 0 0 0];

internalField   nonuniform List<vector> 
100
(
(0.0107506 0 0)
(0.0108905 0 0)
(0.0110305 0 0)
(0.0111792 0 0)
(0.0113121 0 0)
(0.0114118 0 0)
(0.0115133 0 0)
(0.0116688 0 0)
(0.0117861 0 0)
(0.011905 0 0)
(0.0120522 0 0)
(0.0121669 0 0)
(0.0122823 0 0)
(0.0123865 0 0)
(0.0124712 0 0)
(0.0125784 0 0)
(0.0127195 0 0)
(0.0128596 0 0)
(0.0129346 0 0)
(0.0130161 0 0)
(0.0131376 0 0)
(0.0132654 0 0)
(0.0134022 0 0)
(0.0134972 0 0)
(0.0135864 0 0)
(0.013693 0 0)
(0.0138481 0 0)
(0.0139485 0 0)
(0.0140517 0 0)
(0.0141821 0 0)
(0.0142722 0 0)
(0.0143995 0 0)
(0.0145007 0 0)
(0.0145791 0 0)
(0.0146507 0 0)
(0.0147365 0 0)
(0.0148512 0 0)
(0.0149158 0 0)
(0.0150238 0 0)
(0.0151423 0 0)
(0.0152422 0 0)
(0.0153083 0 0)
(0.0153755 0 0)
(0.0154844 0 0)
(0.0155789 0 0)
(0.0156768 0 0)
(0.0157632 0 0)
(0.0158736 0 0)
(0.0159446 0 0)
(0.0160102 0 0)
(0.0160702 0 0)
(0.0161261 0 0)
(0.016189 0 0)
(0.0162509 0 0)
(0.0163619 0 0)
(0.0164506 0 0)
(0.0165114 0 0)
(0.0165895 0 0)
(0.0166717 0 0)
(0.0167365 0 0)
(0.0168179 0 0)
(0.0168739 0 0)
(0.0169375 0 0)
(0.0170385 0 0)
(0.0171165 0 0)
(0.0171635 0 0)
(0.0172393 0 0)
(0.0173089 0 0)
(0.0173894 0 0)
(0.0174147 0 0)
(0.0174893 0 0)
(0.0175257 0 0)
(0.0176086 0 0)
(0.0176753 0 0)
(0.017711 0 0)
(0.0177584 0 0)
(0.0178464 0 0)
(0.0179022 0 0)
(0.0179424 0 0)
(0.0179836 0 0)
(0.0180489 0 0)
(0.0181367 0 0)
(0.0181909 0 0)
(0.0182322 0 0)
(0.018295 0 0)
(0.0183452 0 0)
(0.0184057 0 0)
(0.0184656 0 0)
(0.0184995 0 0)
(0.01858 0 0)
(0.0186552 0 0)
(0.0186949 0 0)
(0.0187665 0 0)
(0.0187999 0 0)
(0.0188535 0 0)
(0.018899 0 0)
(0.018924 0 0)
(0.0189307 0 0)
(0.01889 0 0)
(0.0188414 0 0)
)
;

boundaryField
{
    inlet
    {
        type            fixedValue;
        value           uniform (0.005 0 0);
    }
    outlet
    {
        type            zeroGradient;
    }
    yzfaces
    {
        type            empty;
    }
}


// ************************************************************************* //
