/*--------------------------------*- C++ -*----------------------------------*\
| =========                 |                                                 |
| \\      /  F ield         | foam-extend: Open Source CFD                    |
|  \\    /   O peration     | Version:     5.0                                |
|   \\  /    A nd           | Web:         http://www.foam-extend.org         |
|    \\/     M anipulation  |                                                 |
\*---------------------------------------------------------------------------*/
FoamFile
{
    version     2.0;
    format      ascii;
    class       volVectorField;
    location    "7";
    object      U.gas;
}
// * * * * * * * * * * * * * * * * * * * * * * * * * * * * * * * * * * * * * //

dimensions      [0 1 -1 0 0 0 0];

internalField   nonuniform List<vector> 
100
(
(0.0112942 0 0)
(0.0114581 0 0)
(0.0116405 0 0)
(0.0117866 0 0)
(0.0119248 0 0)
(0.0120372 0 0)
(0.0121932 0 0)
(0.0123631 0 0)
(0.0125217 0 0)
(0.0127155 0 0)
(0.012902 0 0)
(0.0130351 0 0)
(0.0132095 0 0)
(0.0133441 0 0)
(0.0134862 0 0)
(0.0135998 0 0)
(0.013781 0 0)
(0.0139104 0 0)
(0.0140589 0 0)
(0.0142094 0 0)
(0.0143529 0 0)
(0.0144932 0 0)
(0.0146186 0 0)
(0.0147323 0 0)
(0.0148679 0 0)
(0.0150254 0 0)
(0.0151455 0 0)
(0.0152824 0 0)
(0.0154078 0 0)
(0.0155348 0 0)
(0.0156363 0 0)
(0.0157208 0 0)
(0.0158142 0 0)
(0.0159271 0 0)
(0.0160344 0 0)
(0.0161386 0 0)
(0.0162579 0 0)
(0.0163838 0 0)
(0.0164938 0 0)
(0.0166053 0 0)
(0.016706 0 0)
(0.0167942 0 0)
(0.0168969 0 0)
(0.0169983 0 0)
(0.0170625 0 0)
(0.0171176 0 0)
(0.0172204 0 0)
(0.0173315 0 0)
(0.0173832 0 0)
(0.0174731 0 0)
(0.0175301 0 0)
(0.0176195 0 0)
(0.0177021 0 0)
(0.0177918 0 0)
(0.0178655 0 0)
(0.0179421 0 0)
(0.0180526 0 0)
(0.0181336 0 0)
(0.0181942 0 0)
(0.0182751 0 0)
(0.0183365 0 0)
(0.0184263 0 0)
(0.0184881 0 0)
(0.0185471 0 0)
(0.0186122 0 0)
(0.0186776 0 0)
(0.0187485 0 0)
(0.0188294 0 0)
(0.0188848 0 0)
(0.0189316 0 0)
(0.0189869 0 0)
(0.0190462 0 0)
(0.0191106 0 0)
(0.0191633 0 0)
(0.0192254 0 0)
(0.0192841 0 0)
(0.0193315 0 0)
(0.0193894 0 0)
(0.0194574 0 0)
(0.0195332 0 0)
(0.0195713 0 0)
(0.0196056 0 0)
(0.0196677 0 0)
(0.0197438 0 0)
(0.0197793 0 0)
(0.0198241 0 0)
(0.0198681 0 0)
(0.0199083 0 0)
(0.0199588 0 0)
(0.0200068 0 0)
(0.0200363 0 0)
(0.0200924 0 0)
(0.0201315 0 0)
(0.0201661 0 0)
(0.0202241 0 0)
(0.0202554 0 0)
(0.0202706 0 0)
(0.0202851 0 0)
(0.020284 0 0)
(0.0202605 0 0)
)
;

boundaryField
{
    inlet
    {
        type            fixedValue;
        value           uniform (0.005 0 0);
    }
    outlet
    {
        type            zeroGradient;
    }
    yzfaces
    {
        type            empty;
    }
}


// ************************************************************************* //
