/*--------------------------------*- C++ -*----------------------------------*\
| =========                 |                                                 |
| \\      /  F ield         | foam-extend: Open Source CFD                    |
|  \\    /   O peration     | Version:     5.0                                |
|   \\  /    A nd           | Web:         http://www.foam-extend.org         |
|    \\/     M anipulation  |                                                 |
\*---------------------------------------------------------------------------*/
FoamFile
{
    version     2.0;
    format      ascii;
    class       volVectorField;
    location    "7";
    object      U.water;
}
// * * * * * * * * * * * * * * * * * * * * * * * * * * * * * * * * * * * * * //

dimensions      [0 1 -1 0 0 0 0];

internalField   nonuniform List<vector> 
100
(
(9.94642e-06 0 0)
(2.05628e-05 0 0)
(4.35253e-05 0 0)
(6.63404e-05 0 0)
(8.33452e-05 0 0)
(9.68992e-05 0 0)
(0.000112334 0 0)
(0.000134996 0 0)
(0.000150783 0 0)
(0.000165578 0 0)
(0.000188101 0 0)
(0.000204022 0 0)
(0.000219112 0 0)
(0.000234362 0 0)
(0.000257092 0 0)
(0.00027634 0 0)
(0.000289153 0 0)
(0.000307367 0 0)
(0.000328117 0 0)
(0.000355413 0 0)
(0.000371073 0 0)
(0.000388924 0 0)
(0.000407699 0 0)
(0.000427735 0 0)
(0.000439259 0 0)
(0.000458714 0 0)
(0.000479426 0 0)
(0.000496557 0 0)
(0.000518556 0 0)
(0.000537919 0 0)
(0.000555332 0 0)
(0.000570424 0 0)
(0.000583758 0 0)
(0.000598106 0 0)
(0.000623208 0 0)
(0.000643221 0 0)
(0.000653474 0 0)
(0.000674268 0 0)
(0.000696191 0 0)
(0.000712029 0 0)
(0.000726375 0 0)
(0.00074043 0 0)
(0.000760441 0 0)
(0.000780562 0 0)
(0.000794916 0 0)
(0.000806254 0 0)
(0.00082145 0 0)
(0.00084636 0 0)
(0.000861723 0 0)
(0.000874334 0 0)
(0.000889406 0 0)
(0.000902358 0 0)
(0.000919419 0 0)
(0.000935205 0 0)
(0.000952612 0 0)
(0.000968011 0 0)
(0.000986776 0 0)
(0.00100587 0 0)
(0.00102191 0 0)
(0.0010404 0 0)
(0.00105489 0 0)
(0.00106809 0 0)
(0.00108536 0 0)
(0.00109932 0 0)
(0.00111212 0 0)
(0.00112683 0 0)
(0.00114363 0 0)
(0.00116245 0 0)
(0.0011806 0 0)
(0.00119432 0 0)
(0.00120824 0 0)
(0.00122077 0 0)
(0.00123792 0 0)
(0.00125518 0 0)
(0.00126671 0 0)
(0.00128215 0 0)
(0.00129941 0 0)
(0.00131426 0 0)
(0.00132893 0 0)
(0.00134585 0 0)
(0.00136166 0 0)
(0.00137338 0 0)
(0.0013872 0 0)
(0.00140695 0 0)
(0.00142378 0 0)
(0.00143723 0 0)
(0.00145316 0 0)
(0.00146702 0 0)
(0.00148194 0 0)
(0.00150061 0 0)
(0.00151307 0 0)
(0.00152633 0 0)
(0.00154539 0 0)
(0.00155737 0 0)
(0.00157306 0 0)
(0.00159056 0 0)
(0.00160291 0 0)
(0.00161587 0 0)
(0.00162984 0 0)
(0.00164829 0 0)
)
;

boundaryField
{
    inlet
    {
        type            fixedValue;
        value           uniform (0 0 0);
    }
    outlet
    {
        type            zeroGradient;
    }
    yzfaces
    {
        type            empty;
    }
}


// ************************************************************************* //
