/*--------------------------------*- C++ -*----------------------------------*\
| =========                 |                                                 |
| \\      /  F ield         | foam-extend: Open Source CFD                    |
|  \\    /   O peration     | Version:     5.0                                |
|   \\  /    A nd           | Web:         http://www.foam-extend.org         |
|    \\/     M anipulation  |                                                 |
\*---------------------------------------------------------------------------*/
FoamFile
{
    version     2.0;
    format      ascii;
    class       volScalarField;
    location    "7";
    object      YH2O;
}
// * * * * * * * * * * * * * * * * * * * * * * * * * * * * * * * * * * * * * //

dimensions      [0 0 0 0 0 0 0];

internalField   nonuniform List<scalar> 
100
(
0.00247118
-0.00511787
0.00270137
-0.00365266
0.00110659
-0.00257219
0.00325363
-0.00194466
-0.00354497
0.00306011
-0.00863695
0.0075537
-0.00153326
0.0010793
-0.00270077
0.00209105
0.000338194
0.0053356
-0.0017716
0.00288585
-0.000547087
0.00302615
0.00131029
0.000563168
-0.00321827
0.00279469
-0.00325759
-1.34708e-05
-0.00121865
-0.00206439
-0.00485815
-0.000117601
-0.00597315
0.000588444
-0.00650045
0.00232027
-0.00646053
0.00252485
-0.00777995
0.00091652
-0.00628749
0.00126939
-0.00397637
0.00197737
-0.00484386
-0.00123668
-0.000969413
-0.00315316
0.00120761
-0.00153502
0.0019022
-0.00205979
0.0025263
-0.00469444
0.00298156
-0.00392359
0.00473176
-0.0028373
0.00387907
-0.00330394
0.00354662
-0.00290243
0.000863658
-0.00120161
0.000654422
-0.00074782
0.00219488
-0.00351839
0.00173795
-0.0029659
0.0012647
-0.00231769
-0.000775329
-0.000844199
-0.00145438
-0.000582672
-0.00105811
0.000273898
-0.00099502
-6.307e-05
-0.000113655
-0.000739104
0.000560159
0.00016221
-0.000247149
0.000259529
0.00147655
0.00022386
0.00163224
0.000820351
0.000427586
-0.000518959
-3.84966e-05
-2.25418e-05
-0.00019826
-1.88884e-05
0.000432761
-0.000175644
0.00094462
0.000213842
)
;

boundaryField
{
    inlet
    {
        type            calculated;
        value           uniform 0;
    }
    outlet
    {
        type            calculated;
        value           uniform 0.000213842;
    }
    yzfaces
    {
        type            empty;
    }
}


// ************************************************************************* //
