/*--------------------------------*- C++ -*----------------------------------*\
| =========                 |                                                 |
| \\      /  F ield         | foam-extend: Open Source CFD                    |
|  \\    /   O peration     | Version:     5.0                                |
|   \\  /    A nd           | Web:         http://www.foam-extend.org         |
|    \\/     M anipulation  |                                                 |
\*---------------------------------------------------------------------------*/
FoamFile
{
    version     2.0;
    format      ascii;
    class       volVectorField;
    location    "6";
    object      U.water;
}
// * * * * * * * * * * * * * * * * * * * * * * * * * * * * * * * * * * * * * //

dimensions      [0 1 -1 0 0 0 0];

internalField   nonuniform List<vector> 
100
(
(6.89581e-06 0 0)
(2.88009e-05 0 0)
(5.58744e-05 0 0)
(7.14782e-05 0 0)
(8.87514e-05 0 0)
(0.000110162 0 0)
(0.00011798 0 0)
(0.000138451 0 0)
(0.000171051 0 0)
(0.000191411 0 0)
(0.00020512 0 0)
(0.000226632 0 0)
(0.000258057 0 0)
(0.000273627 0 0)
(0.000288385 0 0)
(0.000314974 0 0)
(0.000334025 0 0)
(0.000353763 0 0)
(0.000380234 0 0)
(0.000402869 0 0)
(0.000420763 0 0)
(0.000441978 0 0)
(0.000463728 0 0)
(0.000485637 0 0)
(0.000512303 0 0)
(0.000529546 0 0)
(0.000545247 0 0)
(0.000571373 0 0)
(0.000594328 0 0)
(0.000612563 0 0)
(0.000634257 0 0)
(0.000650614 0 0)
(0.000669733 0 0)
(0.000702138 0 0)
(0.000714856 0 0)
(0.000729045 0 0)
(0.000755238 0 0)
(0.000772486 0 0)
(0.000792606 0 0)
(0.000814051 0 0)
(0.000831774 0 0)
(0.000855139 0 0)
(0.000876237 0 0)
(0.000896388 0 0)
(0.000915147 0 0)
(0.000932799 0 0)
(0.000953174 0 0)
(0.000971111 0 0)
(0.000992358 0 0)
(0.00101088 0 0)
(0.00102762 0 0)
(0.00104231 0 0)
(0.00106321 0 0)
(0.001082 0 0)
(0.00109902 0 0)
(0.001118 0 0)
(0.00113388 0 0)
(0.00115224 0 0)
(0.00117283 0 0)
(0.00119087 0 0)
(0.00120967 0 0)
(0.00123097 0 0)
(0.00124818 0 0)
(0.0012658 0 0)
(0.00128127 0 0)
(0.00129882 0 0)
(0.00131746 0 0)
(0.00133206 0 0)
(0.00135225 0 0)
(0.0013723 0 0)
(0.00138783 0 0)
(0.00140521 0 0)
(0.00142508 0 0)
(0.00144301 0 0)
(0.00146059 0 0)
(0.00148133 0 0)
(0.00149959 0 0)
(0.00151422 0 0)
(0.00153135 0 0)
(0.00154941 0 0)
(0.00156742 0 0)
(0.00158398 0 0)
(0.00159843 0 0)
(0.00161716 0 0)
(0.00163558 0 0)
(0.00165119 0 0)
(0.00167116 0 0)
(0.00168851 0 0)
(0.00170593 0 0)
(0.00172624 0 0)
(0.00174861 0 0)
(0.00176665 0 0)
(0.00178096 0 0)
(0.00179947 0 0)
(0.00181909 0 0)
(0.00183661 0 0)
(0.00185447 0 0)
(0.0018769 0 0)
(0.00189565 0 0)
(0.00191272 0 0)
)
;

boundaryField
{
    inlet
    {
        type            fixedValue;
        value           uniform (0 0 0);
    }
    outlet
    {
        type            zeroGradient;
    }
    yzfaces
    {
        type            empty;
    }
}


// ************************************************************************* //
