/*--------------------------------*- C++ -*----------------------------------*\
| =========                 |                                                 |
| \\      /  F ield         | foam-extend: Open Source CFD                    |
|  \\    /   O peration     | Version:     5.0                                |
|   \\  /    A nd           | Web:         http://www.foam-extend.org         |
|    \\/     M anipulation  |                                                 |
\*---------------------------------------------------------------------------*/
FoamFile
{
    version     2.0;
    format      ascii;
    class       volScalarField;
    location    "6";
    object      YH2O;
}
// * * * * * * * * * * * * * * * * * * * * * * * * * * * * * * * * * * * * * //

dimensions      [0 0 0 0 0 0 0];

internalField   nonuniform List<scalar> 
100
(
-0.00358428
0.00362154
-0.00429334
0.00289662
-0.00229148
0.00317308
-0.00200764
0.00350723
-0.00189817
0.000996547
0.00154072
-0.0022862
0.00289136
-0.00418039
-0.000401348
-0.00647466
-0.000860386
-0.00187892
-0.00130875
-0.00135024
-0.00196454
0.001346
-0.00252636
0.000655108
-0.0010085
0.00215337
-0.00141506
-0.000593845
-0.000764614
0.000374382
-0.00222954
-3.20033e-06
-0.00254523
0.000855618
-0.000841042
0.000298599
0.0008128
-0.00112167
-0.00113834
-0.00205397
0.00176971
5.39375e-05
0.00110674
-0.000704927
0.000341277
0.000925656
-0.000755511
0.00124506
-0.00286771
0.00348785
-0.00361089
0.00399716
-0.00583505
0.00617762
-0.0085821
0.00774318
-0.0110709
0.00846801
-0.0135058
0.0126208
-0.0154071
0.0158635
-0.0152271
0.0173386
-0.0169417
0.0190232
-0.0172395
0.0191092
-0.0164136
0.0179214
-0.0168566
0.0165509
-0.0130252
0.0127398
-0.00975269
0.00958482
-0.0087051
0.00936177
-0.00782025
0.00586303
-0.00544672
0.00391577
-0.00307229
0.00241542
-0.000542082
0.00177102
-0.00151561
0.00078491
-0.000713463
0.000939783
-0.000194098
7.83379e-05
4.22026e-05
0.00083164
-0.0018971
0.00134028
-0.00203945
0.000291123
-0.00173121
-3.79015e-05
)
;

boundaryField
{
    inlet
    {
        type            calculated;
        value           uniform 0;
    }
    outlet
    {
        type            calculated;
        value           uniform -3.79015e-05;
    }
    yzfaces
    {
        type            empty;
    }
}


// ************************************************************************* //
