/*--------------------------------*- C++ -*----------------------------------*\
| =========                 |                                                 |
| \\      /  F ield         | foam-extend: Open Source CFD                    |
|  \\    /   O peration     | Version:     5.0                                |
|   \\  /    A nd           | Web:         http://www.foam-extend.org         |
|    \\/     M anipulation  |                                                 |
\*---------------------------------------------------------------------------*/
FoamFile
{
    version     2.0;
    format      ascii;
    class       volScalarField;
    location    "5";
    object      alpha.water;
}
// * * * * * * * * * * * * * * * * * * * * * * * * * * * * * * * * * * * * * //

dimensions      [0 0 0 0 0 0 0];

internalField   nonuniform List<scalar> 
100
(
0.199843
0.199745
0.199654
0.199566
0.199479
0.199393
0.199308
0.199221
0.199137
0.199051
0.198963
0.198874
0.198781
0.198688
0.198592
0.198492
0.198385
0.198267
0.198137
0.197987
0.197802
0.197551
0.197167
0.196489
0.194855
0.187727
0.115751
0.0127315
0.00993608
0.00995893
0.00990635
0.0100045
0.0100046
0.00995684
0.0100768
0.0101028
0.00993445
0.00997489
0.0100019
0.00997973
0.00995495
0.0100553
0.0100562
0.00997416
0.00997741
0.00996064
0.0099753
0.00997998
0.0100056
0.0100066
0.00995302
0.00998249
0.0100037
0.00995639
0.00997959
0.00997772
0.00998005
0.0099844
0.0100029
0.0100251
0.00995378
0.00997254
0.0100519
0.00998043
0.00995205
0.0100225
0.0100053
0.00993731
0.0100068
0.0100284
0.0100306
0.0100277
0.0100277
0.00993463
0.00998239
0.0100315
0.010022
0.0100488
0.00993243
0.0100011
0.00995769
0.0100777
0.010006
0.00992611
0.0099555
0.00998213
0.00995007
0.00999979
0.0100531
0.00993462
0.0100058
0.010031
0.00995767
0.0100256
0.00995451
0.00995529
0.00997653
0.00994812
0.0100273
0.00999693
)
;

boundaryField
{
    inlet
    {
        type            fixedValue;
        value           uniform 0.2;
    }
    outlet
    {
        type            zeroGradient;
    }
    yzfaces
    {
        type            empty;
    }
}


// ************************************************************************* //
