/*--------------------------------*- C++ -*----------------------------------*\
| =========                 |                                                 |
| \\      /  F ield         | foam-extend: Open Source CFD                    |
|  \\    /   O peration     | Version:     5.0                                |
|   \\  /    A nd           | Web:         http://www.foam-extend.org         |
|    \\/     M anipulation  |                                                 |
\*---------------------------------------------------------------------------*/
FoamFile
{
    version     2.0;
    format      ascii;
    class       volScalarField;
    location    "5";
    object      alpha.gas;
}
// * * * * * * * * * * * * * * * * * * * * * * * * * * * * * * * * * * * * * //

dimensions      [0 0 0 0 0 0 0];

internalField   nonuniform List<scalar> 
100
(
0.000157377
0.000254801
0.00034562
0.00043365
0.000520794
0.000606772
0.00069234
0.000778919
0.000863002
0.000949456
0.00103696
0.00112644
0.00121861
0.00131215
0.00140757
0.00150844
0.00161523
0.00173309
0.00186308
0.00201348
0.00219832
0.00244869
0.00283292
0.00351138
0.00514536
0.0122728
0.0842486
0.187269
0.190064
0.190041
0.190094
0.189995
0.189995
0.190043
0.189923
0.189897
0.190066
0.190025
0.189998
0.19002
0.190045
0.189945
0.189944
0.190026
0.190023
0.190039
0.190025
0.19002
0.189994
0.189993
0.190047
0.190018
0.189996
0.190044
0.19002
0.190022
0.19002
0.190016
0.189997
0.189975
0.190046
0.190027
0.189948
0.19002
0.190048
0.189978
0.189995
0.190063
0.189993
0.189972
0.189969
0.189972
0.189972
0.190065
0.190018
0.189969
0.189978
0.189951
0.190068
0.189999
0.190042
0.189922
0.189994
0.190074
0.190045
0.190018
0.19005
0.19
0.189947
0.190065
0.189994
0.189969
0.190042
0.189974
0.190045
0.190045
0.190023
0.190052
0.189973
0.190003
)
;

boundaryField
{
    inlet
    {
        type            fixedValue;
        value           uniform 0;
    }
    outlet
    {
        type            zeroGradient;
    }
    yzfaces
    {
        type            empty;
    }
}


// ************************************************************************* //
