/*--------------------------------*- C++ -*----------------------------------*\
| =========                 |                                                 |
| \\      /  F ield         | foam-extend: Open Source CFD                    |
|  \\    /   O peration     | Version:     5.0                                |
|   \\  /    A nd           | Web:         http://www.foam-extend.org         |
|    \\/     M anipulation  |                                                 |
\*---------------------------------------------------------------------------*/
FoamFile
{
    version     2.0;
    format      ascii;
    class       volScalarField;
    location    "5";
    object      CO2.water;
}
// * * * * * * * * * * * * * * * * * * * * * * * * * * * * * * * * * * * * * //

dimensions      [0 0 0 0 0 0 0];

internalField   nonuniform List<scalar> 
100
(
1.45003e-11
2.88659e-10
2.92778e-09
2.0162e-08
1.05875e-07
4.53022e-07
1.64436e-06
5.20034e-06
1.46606e-05
3.73335e-05
8.70227e-05
0.000187649
0.000377132
0.000712432
0.00127032
0.00215103
0.00347614
0.00537723
0.00799941
0.011474
0.0159165
0.021407
0.0279269
0.035423
0.0436698
0.0514086
0.0398757
0.0109675
0.0100021
0.0100004
0.00999979
0.01
0.0100003
0.0100007
0.00999995
0.01
0.0100001
0.0100007
0.0100002
0.0100011
0.00999788
0.0100015
0.00999897
0.0100015
0.00999866
0.00999884
0.0100001
0.00999989
0.0100011
0.00999966
0.0100007
0.00999896
0.00999934
0.00999923
0.0100005
0.01
0.01
0.0100002
0.00999829
0.0100002
0.01
0.00999997
0.00999968
0.00999915
0.0099997
0.00999995
0.0099998
0.00999987
0.0100001
0.00999958
0.0100007
0.0100002
0.0100001
0.0100002
0.00999958
0.0100003
0.0100005
0.0100002
0.0100006
0.00999897
0.0100016
0.00999896
0.0100005
0.00999923
0.00999912
0.0100009
0.0100003
0.01
0.00999962
0.0100003
0.00999998
0.00999967
0.0099992
0.0100002
0.0100001
0.0100005
0.00999984
0.0099994
0.00999965
0.00999925
)
;

boundaryField
{
    inlet
    {
        type            fixedValue;
        value           uniform 0;
    }
    outlet
    {
        type            zeroGradient;
    }
    yzfaces
    {
        type            empty;
    }
}


// ************************************************************************* //
