/*--------------------------------*- C++ -*----------------------------------*\
| =========                 |                                                 |
| \\      /  F ield         | foam-extend: Open Source CFD                    |
|  \\    /   O peration     | Version:     5.0                                |
|   \\  /    A nd           | Web:         http://www.foam-extend.org         |
|    \\/     M anipulation  |                                                 |
\*---------------------------------------------------------------------------*/
FoamFile
{
    version     2.0;
    format      ascii;
    class       surfaceScalarField;
    location    "5";
    object      phi;
}
// * * * * * * * * * * * * * * * * * * * * * * * * * * * * * * * * * * * * * //

dimensions      [0 3 -1 0 0 0 0];

internalField   nonuniform List<scalar> 
99
(
1.22521e-06
1.22614e-06
1.22607e-06
1.22561e-06
1.22582e-06
1.22624e-06
1.2258e-06
1.22576e-06
1.2257e-06
1.2252e-06
1.22619e-06
1.22542e-06
1.22588e-06
1.22435e-06
1.22543e-06
1.22535e-06
1.22509e-06
1.22552e-06
1.22571e-06
1.22576e-06
1.22692e-06
1.22676e-06
1.227e-06
1.22635e-06
1.22634e-06
1.22639e-06
1.2263e-06
1.21558e-06
1.19305e-06
1.1937e-06
1.17136e-06
1.1993e-06
1.20734e-06
1.20796e-06
1.24277e-06
1.2734e-06
1.21544e-06
1.22199e-06
1.22138e-06
1.21578e-06
1.208e-06
1.2276e-06
1.22158e-06
1.18442e-06
1.17041e-06
1.17201e-06
1.15399e-06
1.16983e-06
1.16268e-06
1.19212e-06
1.17042e-06
1.17136e-06
1.18467e-06
1.1633e-06
1.16264e-06
1.14687e-06
1.1481e-06
1.1332e-06
1.14713e-06
1.16886e-06
1.13284e-06
1.16177e-06
1.17656e-06
1.17078e-06
1.15462e-06
1.16884e-06
1.16264e-06
1.12678e-06
1.13225e-06
1.1546e-06
1.18499e-06
1.16233e-06
1.17661e-06
1.14941e-06
1.16268e-06
1.16945e-06
1.1763e-06
1.19862e-06
1.13415e-06
1.1543e-06
1.13353e-06
1.17719e-06
1.16268e-06
1.14065e-06
1.1549e-06
1.14774e-06
1.14003e-06
1.14658e-06
1.15365e-06
1.12665e-06
1.13225e-06
1.14712e-06
1.11117e-06
1.13131e-06
1.11112e-06
1.08883e-06
1.08073e-06
1.06581e-06
1.08817e-06
)
;

boundaryField
{
    inlet
    {
        type            calculated;
        value           uniform -1.225e-06;
    }
    outlet
    {
        type            calculated;
        value           uniform 1.05775e-06;
    }
    yzfaces
    {
        type            empty;
    }
}


// ************************************************************************* //
