/*--------------------------------*- C++ -*----------------------------------*\
| =========                 |                                                 |
| \\      /  F ield         | foam-extend: Open Source CFD                    |
|  \\    /   O peration     | Version:     5.0                                |
|   \\  /    A nd           | Web:         http://www.foam-extend.org         |
|    \\/     M anipulation  |                                                 |
\*---------------------------------------------------------------------------*/
FoamFile
{
    version     2.0;
    format      ascii;
    class       volScalarField;
    location    "5";
    object      S.water;
}
// * * * * * * * * * * * * * * * * * * * * * * * * * * * * * * * * * * * * * //

dimensions      [0 0 0 0 0 0 0];

internalField   nonuniform List<scalar> 
100
(
0.999213
0.998726
0.998272
0.997832
0.997396
0.996966
0.996538
0.996105
0.995685
0.995253
0.994815
0.994368
0.993907
0.993439
0.992962
0.992458
0.991924
0.991335
0.990685
0.989933
0.989008
0.987757
0.985835
0.982443
0.974273
0.938636
0.578757
0.0636575
0.0496804
0.0497947
0.0495318
0.0500226
0.0500231
0.0497842
0.0503842
0.0505141
0.0496723
0.0498744
0.0500097
0.0498987
0.0497747
0.0502766
0.050281
0.0498708
0.049887
0.0498032
0.0498765
0.0498999
0.0500279
0.050033
0.0497651
0.0499124
0.0500184
0.049782
0.0498979
0.0498886
0.0499002
0.049922
0.0500147
0.0501257
0.0497689
0.0498627
0.0502593
0.0499021
0.0497602
0.0501124
0.0500265
0.0496866
0.050034
0.050142
0.0501528
0.0501385
0.0501386
0.0496731
0.0499119
0.0501574
0.0501098
0.0502438
0.0496622
0.0500054
0.0497885
0.0503885
0.0500301
0.0496306
0.0497775
0.0499107
0.0497503
0.0499989
0.0502653
0.0496731
0.050029
0.0501551
0.0497884
0.0501279
0.0497725
0.0497764
0.0498827
0.0497406
0.0501365
0.0499847
)
;

boundaryField
{
    inlet
    {
        type            calculated;
        value           uniform 1;
    }
    outlet
    {
        type            calculated;
        value           uniform 0.0499847;
    }
    yzfaces
    {
        type            empty;
    }
}


// ************************************************************************* //
