/*--------------------------------*- C++ -*----------------------------------*\
| =========                 |                                                 |
| \\      /  F ield         | foam-extend: Open Source CFD                    |
|  \\    /   O peration     | Version:     5.0                                |
|   \\  /    A nd           | Web:         http://www.foam-extend.org         |
|    \\/     M anipulation  |                                                 |
\*---------------------------------------------------------------------------*/
FoamFile
{
    version     2.0;
    format      ascii;
    class       volVectorField;
    location    "5";
    object      U.gas;
}
// * * * * * * * * * * * * * * * * * * * * * * * * * * * * * * * * * * * * * //

dimensions      [0 1 -1 0 0 0 0];

internalField   nonuniform List<vector> 
100
(
(0.00011197 0 0)
(0.00025074 0 0)
(0.000380182 0 0)
(0.000505489 0 0)
(0.000629441 0 0)
(0.00075334 0 0)
(0.000875442 0 0)
(0.000997756 0 0)
(0.00112105 0 0)
(0.00124103 0 0)
(0.00136615 0 0)
(0.00149235 0 0)
(0.00162199 0 0)
(0.00175412 0 0)
(0.00188943 0 0)
(0.00202928 0 0)
(0.00217472 0 0)
(0.00233052 0 0)
(0.00250311 0 0)
(0.00269486 0 0)
(0.00291925 0 0)
(0.00319551 0 0)
(0.00357895 0 0)
(0.00419274 0 0)
(0.00544127 0 0)
(0.00952133 0 0)
(0.00691043 0 0)
(0.00523599 0 0)
(0.0051722 0 0)
(0.0051259 0 0)
(0.00507792 0 0)
(0.00509259 0 0)
(0.00516989 0 0)
(0.00518719 0 0)
(0.00526659 0 0)
(0.00540797 0 0)
(0.0053445 0 0)
(0.0052352 0 0)
(0.00524871 0 0)
(0.00523477 0 0)
(0.00520534 0 0)
(0.00523349 0 0)
(0.00526271 0 0)
(0.00516768 0 0)
(0.00505786 0 0)
(0.00503077 0 0)
(0.00499588 0 0)
(0.00499132 0 0)
(0.00501068 0 0)
(0.00505859 0 0)
(0.00507377 0 0)
(0.00502995 0 0)
(0.00506113 0 0)
(0.00504257 0 0)
(0.00499587 0 0)
(0.00496054 0 0)
(0.00492937 0 0)
(0.00490011 0 0)
(0.0048985 0 0)
(0.00497569 0 0)
(0.00494314 0 0)
(0.00492839 0 0)
(0.0050244 0 0)
(0.00504186 0 0)
(0.00499399 0 0)
(0.00499169 0 0)
(0.00500846 0 0)
(0.00491634 0 0)
(0.00485284 0 0)
(0.00491316 0 0)
(0.00502652 0 0)
(0.00504305 0 0)
(0.00502506 0 0)
(0.00499484 0 0)
(0.00496618 0 0)
(0.00501053 0 0)
(0.00503956 0 0)
(0.00510294 0 0)
(0.0050093 0 0)
(0.00491589 0 0)
(0.00491344 0 0)
(0.00496573 0 0)
(0.00502647 0 0)
(0.0049459 0 0)
(0.00492996 0 0)
(0.00494589 0 0)
(0.00491312 0 0)
(0.0049119 0 0)
(0.00494255 0 0)
(0.00489668 0 0)
(0.00485255 0 0)
(0.00489716 0 0)
(0.00484999 0 0)
(0.00481777 0 0)
(0.00481586 0 0)
(0.00472464 0 0)
(0.0046599 0 0)
(0.00460977 0 0)
(0.00462768 0 0)
(0.00460962 0 0)
)
;

boundaryField
{
    inlet
    {
        type            fixedValue;
        value           uniform (0 0 0);
    }
    outlet
    {
        type            zeroGradient;
    }
    yzfaces
    {
        type            empty;
    }
}


// ************************************************************************* //
