/*--------------------------------*- C++ -*----------------------------------*\
| =========                 |                                                 |
| \\      /  F ield         | foam-extend: Open Source CFD                    |
|  \\    /   O peration     | Version:     5.0                                |
|   \\  /    A nd           | Web:         http://www.foam-extend.org         |
|    \\/     M anipulation  |                                                 |
\*---------------------------------------------------------------------------*/
FoamFile
{
    version     2.0;
    format      ascii;
    class       volScalarField;
    location    "5";
    object      alpha.gas;
}
// * * * * * * * * * * * * * * * * * * * * * * * * * * * * * * * * * * * * * //

dimensions      [0 0 0 0 0 0 0];

internalField   nonuniform List<scalar> 
100
(
0.13075
0.113526
0.103369
0.0961416
0.0905318
0.0859966
0.0821984
0.0790248
0.0763307
0.0739504
0.0717699
0.0696856
0.0679319
0.066416
0.0649569
0.0635847
0.0623477
0.0610802
0.0598352
0.0588278
0.057705
0.0566713
0.0559539
0.0552411
0.054459
0.0536677
0.0528707
0.0521052
0.0514706
0.0508397
0.0502329
0.0497127
0.0491453
0.0485255
0.0478509
0.0472778
0.0467667
0.0461999
0.045702
0.045159
0.0446339
0.0441596
0.0437437
0.0433174
0.042925
0.0425401
0.0421695
0.0418182
0.0414824
0.041073
0.0407315
0.0403842
0.0399781
0.0395912
0.0392115
0.038856
0.0385376
0.038243
0.0379199
0.0375976
0.0372881
0.0370201
0.036697
0.0363953
0.0361251
0.0358436
0.0355903
0.0353324
0.0350663
0.0347898
0.0344704
0.0341734
0.0339106
0.033668
0.0334214
0.033182
0.0329248
0.0326613
0.0323954
0.0321695
0.0319357
0.0316967
0.0314495
0.0311905
0.0309461
0.030708
0.0304677
0.0302357
0.0299862
0.0297532
0.0295172
0.0292768
0.0290628
0.0288504
0.0286108
0.0283924
0.0281716
0.0279569
0.0277421
0.0275367
)
;

boundaryField
{
    inlet
    {
        type            fixedValue;
        value           uniform 0.2;
    }
    outlet
    {
        type            zeroGradient;
    }
    yzfaces
    {
        type            empty;
    }
}


// ************************************************************************* //
