/*--------------------------------*- C++ -*----------------------------------*\
| =========                 |                                                 |
| \\      /  F ield         | foam-extend: Open Source CFD                    |
|  \\    /   O peration     | Version:     5.0                                |
|   \\  /    A nd           | Web:         http://www.foam-extend.org         |
|    \\/     M anipulation  |                                                 |
\*---------------------------------------------------------------------------*/
FoamFile
{
    version     2.0;
    format      ascii;
    class       volVectorField;
    location    "5";
    object      U.water;
}
// * * * * * * * * * * * * * * * * * * * * * * * * * * * * * * * * * * * * * //

dimensions      [0 1 -1 0 0 0 0];

internalField   nonuniform List<vector> 
100
(
(3.53383e-05 0 0)
(8.66841e-05 0 0)
(0.000130429 0 0)
(0.000168823 0 0)
(0.000204671 0 0)
(0.000239246 0 0)
(0.000272463 0 0)
(0.000304021 0 0)
(0.000334465 0 0)
(0.000363563 0 0)
(0.000390603 0 0)
(0.000418078 0 0)
(0.00044804 0 0)
(0.00047625 0 0)
(0.000501748 0 0)
(0.000527657 0 0)
(0.000552661 0 0)
(0.000577374 0 0)
(0.000604392 0 0)
(0.000630081 0 0)
(0.000654896 0 0)
(0.000681916 0 0)
(0.00070521 0 0)
(0.000725103 0 0)
(0.000746021 0 0)
(0.000768628 0 0)
(0.000791341 0 0)
(0.000814238 0 0)
(0.000836887 0 0)
(0.000857231 0 0)
(0.00087794 0 0)
(0.000898589 0 0)
(0.00091757 0 0)
(0.00093688 0 0)
(0.000959576 0 0)
(0.000983273 0 0)
(0.00100299 0 0)
(0.00102393 0 0)
(0.00104763 0 0)
(0.00106957 0 0)
(0.00109252 0 0)
(0.0011162 0 0)
(0.00113674 0 0)
(0.00115638 0 0)
(0.00117645 0 0)
(0.00119554 0 0)
(0.00121504 0 0)
(0.00123435 0 0)
(0.00125183 0 0)
(0.00127124 0 0)
(0.0012929 0 0)
(0.00131136 0 0)
(0.00133178 0 0)
(0.00135409 0 0)
(0.00137604 0 0)
(0.00139857 0 0)
(0.00142048 0 0)
(0.00143997 0 0)
(0.00145863 0 0)
(0.00147875 0 0)
(0.00149939 0 0)
(0.00151837 0 0)
(0.0015367 0 0)
(0.00155866 0 0)
(0.00157936 0 0)
(0.00159793 0 0)
(0.00161678 0 0)
(0.0016334 0 0)
(0.00165042 0 0)
(0.00167046 0 0)
(0.00169253 0 0)
(0.0017167 0 0)
(0.00173948 0 0)
(0.00175906 0 0)
(0.00177749 0 0)
(0.00179554 0 0)
(0.00181411 0 0)
(0.00183442 0 0)
(0.00185707 0 0)
(0.00187865 0 0)
(0.00189835 0 0)
(0.00191881 0 0)
(0.00193904 0 0)
(0.00196109 0 0)
(0.0019836 0 0)
(0.00200592 0 0)
(0.0020285 0 0)
(0.00205105 0 0)
(0.00207434 0 0)
(0.00209844 0 0)
(0.00212111 0 0)
(0.00214383 0 0)
(0.00216553 0 0)
(0.00218463 0 0)
(0.00220501 0 0)
(0.00222646 0 0)
(0.00224731 0 0)
(0.00226863 0 0)
(0.00229018 0 0)
(0.00230968 0 0)
)
;

boundaryField
{
    inlet
    {
        type            fixedValue;
        value           uniform (0 0 0);
    }
    outlet
    {
        type            zeroGradient;
    }
    yzfaces
    {
        type            empty;
    }
}


// ************************************************************************* //
