/*--------------------------------*- C++ -*----------------------------------*\
| =========                 |                                                 |
| \\      /  F ield         | foam-extend: Open Source CFD                    |
|  \\    /   O peration     | Version:     5.0                                |
|   \\  /    A nd           | Web:         http://www.foam-extend.org         |
|    \\/     M anipulation  |                                                 |
\*---------------------------------------------------------------------------*/
FoamFile
{
    version     2.0;
    format      ascii;
    class       volVectorField;
    location    "10";
    object      U.gas;
}
// * * * * * * * * * * * * * * * * * * * * * * * * * * * * * * * * * * * * * //

dimensions      [0 1 -1 0 0 0 0];

internalField   nonuniform List<vector> 
100
(
(0.0107395 0 0)
(0.01087 0 0)
(0.0109804 0 0)
(0.011117 0 0)
(0.0112733 0 0)
(0.0113921 0 0)
(0.01149 0 0)
(0.0116442 0 0)
(0.0117827 0 0)
(0.011903 0 0)
(0.0120442 0 0)
(0.0121714 0 0)
(0.0122996 0 0)
(0.0124142 0 0)
(0.0125415 0 0)
(0.0126763 0 0)
(0.0127862 0 0)
(0.0128899 0 0)
(0.0129981 0 0)
(0.013112 0 0)
(0.0132301 0 0)
(0.0133639 0 0)
(0.0134601 0 0)
(0.0135929 0 0)
(0.0137182 0 0)
(0.0138581 0 0)
(0.0139721 0 0)
(0.0140866 0 0)
(0.0142271 0 0)
(0.0143804 0 0)
(0.0144907 0 0)
(0.0145919 0 0)
(0.0146992 0 0)
(0.0147887 0 0)
(0.0148934 0 0)
(0.0150013 0 0)
(0.0151139 0 0)
(0.0152297 0 0)
(0.0153052 0 0)
(0.0153937 0 0)
(0.015485 0 0)
(0.0156025 0 0)
(0.0157097 0 0)
(0.0158212 0 0)
(0.0159345 0 0)
(0.016038 0 0)
(0.0161444 0 0)
(0.0162544 0 0)
(0.0163465 0 0)
(0.016425 0 0)
(0.0165117 0 0)
(0.0165941 0 0)
(0.016662 0 0)
(0.0167564 0 0)
(0.016861 0 0)
(0.0169396 0 0)
(0.0170614 0 0)
(0.0171598 0 0)
(0.0172643 0 0)
(0.0173293 0 0)
(0.017412 0 0)
(0.0174899 0 0)
(0.0175809 0 0)
(0.0176768 0 0)
(0.0177521 0 0)
(0.0178136 0 0)
(0.01787 0 0)
(0.0179382 0 0)
(0.017997 0 0)
(0.0180578 0 0)
(0.0181227 0 0)
(0.0181896 0 0)
(0.0182633 0 0)
(0.0183216 0 0)
(0.0183748 0 0)
(0.0184197 0 0)
(0.0184961 0 0)
(0.0185424 0 0)
(0.0185865 0 0)
(0.0186531 0 0)
(0.01873 0 0)
(0.0187898 0 0)
(0.0188165 0 0)
(0.0188364 0 0)
(0.0189039 0 0)
(0.0189604 0 0)
(0.0190048 0 0)
(0.0190649 0 0)
(0.0191186 0 0)
(0.019177 0 0)
(0.0192375 0 0)
(0.0192737 0 0)
(0.0192932 0 0)
(0.0193392 0 0)
(0.0193977 0 0)
(0.0194311 0 0)
(0.0194568 0 0)
(0.0194778 0 0)
(0.0194761 0 0)
(0.0194656 0 0)
)
;

boundaryField
{
    inlet
    {
        type            fixedValue;
        value           uniform (0.005 0 0);
    }
    outlet
    {
        type            zeroGradient;
    }
    yzfaces
    {
        type            empty;
    }
}


// ************************************************************************* //
