/*--------------------------------*- C++ -*----------------------------------*\
| =========                 |                                                 |
| \\      /  F ield         | foam-extend: Open Source CFD                    |
|  \\    /   O peration     | Version:     5.0                                |
|   \\  /    A nd           | Web:         http://www.foam-extend.org         |
|    \\/     M anipulation  |                                                 |
\*---------------------------------------------------------------------------*/
FoamFile
{
    version     2.0;
    format      ascii;
    class       volScalarField;
    location    "10";
    object      YH2O;
}
// * * * * * * * * * * * * * * * * * * * * * * * * * * * * * * * * * * * * * //

dimensions      [0 0 0 0 0 0 0];

internalField   nonuniform List<scalar> 
100
(
0.00165654
-0.00361988
0.00126676
-0.000845803
-0.000182621
0.00383221
-0.0043509
-0.000866287
-0.00389005
0.00241379
-0.000970256
-0.000329354
-0.000570019
0.00207285
0.00432808
-0.000846006
0.00396026
0.00293608
0.001442
0.00210955
-0.00203991
-0.000121186
-0.00399184
-0.00115678
-0.00514489
0.00267814
-0.00381315
0.00663454
-0.00304116
0.00554604
0.000404007
0.00129544
-0.00107388
0.00366138
-0.000846282
0.00319814
-0.000254354
0.00172644
-0.000530655
0.00138349
-0.00190375
0.00405825
-0.00112668
0.000271516
0.00194289
0.00364811
0.000209016
0.00405429
0.00246273
-0.00205152
0.0015658
0.000418793
0.000401687
-0.000587734
-0.000204547
0.00162385
-0.000609538
-0.000318791
-0.000896739
0.000818905
0.00147285
-0.00104172
0.00206696
-0.00233272
0.00367221
-0.00308953
0.00442819
-0.00358047
0.00392124
-0.00350443
0.00484746
-0.000347407
0.00432771
-0.000797578
0.00357296
-8.52318e-05
0.000579704
-0.000890902
-0.00071029
-0.00163687
-0.00194278
-0.00297118
-0.00177682
-0.0028907
-0.00145541
-0.00153495
-0.00157083
-0.0016375
-0.00447247
-0.00201943
-0.00212042
-0.00324152
-0.0027428
-0.00222691
-0.00279158
-0.00198136
-0.00104119
-0.000802528
-0.00211668
-0.000429775
)
;

boundaryField
{
    inlet
    {
        type            calculated;
        value           uniform 0;
    }
    outlet
    {
        type            calculated;
        value           uniform -0.000429775;
    }
    yzfaces
    {
        type            empty;
    }
}


// ************************************************************************* //
