/*--------------------------------*- C++ -*----------------------------------*\
| =========                 |                                                 |
| \\      /  F ield         | foam-extend: Open Source CFD                    |
|  \\    /   O peration     | Version:     5.0                                |
|   \\  /    A nd           | Web:         http://www.foam-extend.org         |
|    \\/     M anipulation  |                                                 |
\*---------------------------------------------------------------------------*/
FoamFile
{
    version     2.0;
    format      ascii;
    class       volScalarField;
    location    "9";
    object      alpha.gas;
}
// * * * * * * * * * * * * * * * * * * * * * * * * * * * * * * * * * * * * * //

dimensions      [0 0 0 0 0 0 0];

internalField   nonuniform List<scalar> 
100
(
0.0914482
0.0901993
0.0889316
0.0878645
0.0866302
0.0855804
0.0844753
0.0833656
0.0823123
0.0812795
0.080165
0.0792046
0.0783821
0.0773457
0.0764545
0.0754585
0.074436
0.0735245
0.0726798
0.0718156
0.0709334
0.0701892
0.0693555
0.0686185
0.0678326
0.0670851
0.0664642
0.0657133
0.0650879
0.064382
0.0637088
0.0631643
0.0625703
0.0619057
0.061363
0.0608759
0.0603015
0.0597615
0.0592578
0.0587454
0.0583066
0.0577971
0.0572701
0.056872
0.0563436
0.0559521
0.055453
0.0549659
0.0545705
0.0541105
0.0537029
0.0532746
0.0528432
0.0524291
0.0520028
0.051652
0.0512827
0.0508624
0.0505375
0.0501267
0.0498188
0.0494764
0.0491676
0.0488524
0.0485452
0.0482622
0.0479732
0.0476624
0.0473634
0.0470619
0.0467826
0.0465535
0.0462832
0.0459758
0.0456923
0.0454299
0.0451927
0.0449142
0.0446376
0.0443606
0.0440942
0.0438597
0.0436104
0.0433422
0.0430771
0.0428764
0.0426461
0.0424223
0.0421749
0.0419705
0.0417927
0.0415771
0.0413519
0.0411581
0.0409733
0.0407869
0.0406197
0.0404736
0.0403328
0.0402407
)
;

boundaryField
{
    inlet
    {
        type            fixedValue;
        value           uniform 0.2;
    }
    outlet
    {
        type            zeroGradient;
    }
    yzfaces
    {
        type            empty;
    }
}


// ************************************************************************* //
