/*--------------------------------*- C++ -*----------------------------------*\
| =========                 |                                                 |
| \\      /  F ield         | foam-extend: Open Source CFD                    |
|  \\    /   O peration     | Version:     5.0                                |
|   \\  /    A nd           | Web:         http://www.foam-extend.org         |
|    \\/     M anipulation  |                                                 |
\*---------------------------------------------------------------------------*/
FoamFile
{
    version     2.0;
    format      ascii;
    class       volScalarField;
    location    "9";
    object      CO2.gas;
}
// * * * * * * * * * * * * * * * * * * * * * * * * * * * * * * * * * * * * * //

dimensions      [0 0 0 0 0 0 0];

internalField   nonuniform List<scalar> 
100
(
0.0457119
0.0451385
0.0444638
0.0439399
0.0432964
0.0427981
0.0422292
0.041662
0.0411771
0.0406658
0.04012
0.0396363
0.0392835
0.0387261
0.0382682
0.0377379
0.0372368
0.0367899
0.0364021
0.0359499
0.0354792
0.0350905
0.034671
0.0343003
0.0339074
0.0335298
0.0332375
0.032839
0.0325489
0.0321934
0.0318663
0.0316134
0.0313066
0.0309571
0.030694
0.0304573
0.0301551
0.029869
0.0296102
0.0293463
0.0291332
0.0288802
0.0286133
0.0284312
0.0281513
0.0279762
0.027719
0.0274735
0.0272807
0.0270483
0.02685
0.026642
0.0264349
0.0262238
0.026007
0.0258379
0.0256534
0.0254261
0.0252818
0.0250746
0.0249311
0.0247493
0.0245947
0.0244387
0.0242842
0.0241347
0.0239844
0.0238244
0.0236731
0.0235162
0.0233782
0.0232694
0.0231403
0.0229795
0.0228427
0.0227219
0.0226092
0.0224665
0.0223231
0.0221808
0.0220459
0.021931
0.0218011
0.0216607
0.0215304
0.0214347
0.0213205
0.0212117
0.0210825
0.0209872
0.0209038
0.020794
0.0206805
0.0205834
0.0204886
0.0203969
0.0203173
0.0202425
0.0201779
0.0201347
)
;

boundaryField
{
    inlet
    {
        type            fixedValue;
        value           uniform 0.1;
    }
    outlet
    {
        type            zeroGradient;
    }
    yzfaces
    {
        type            empty;
    }
}


// ************************************************************************* //
