/*--------------------------------*- C++ -*----------------------------------*\
| =========                 |                                                 |
| \\      /  F ield         | foam-extend: Open Source CFD                    |
|  \\    /   O peration     | Version:     5.0                                |
|   \\  /    A nd           | Web:         http://www.foam-extend.org         |
|    \\/     M anipulation  |                                                 |
\*---------------------------------------------------------------------------*/
FoamFile
{
    version     2.0;
    format      ascii;
    class       volScalarField;
    location    "9";
    object      H2O.gas;
}
// * * * * * * * * * * * * * * * * * * * * * * * * * * * * * * * * * * * * * //

dimensions      [0 0 0 0 0 0 0];

internalField   nonuniform List<scalar> 
100
(
0.0457297
0.045071
0.0444312
0.0439357
0.0432988
0.0428157
0.0422766
0.0416791
0.0411547
0.0406049
0.0400092
0.0395462
0.0391356
0.0386361
0.0382314
0.0377257
0.0371863
0.0367356
0.0363136
0.0358681
0.0354427
0.0351101
0.0346778
0.0343285
0.0339252
0.0335525
0.0332439
0.0328561
0.032545
0.0321756
0.0318229
0.0315649
0.031273
0.0309292
0.0306632
0.0304363
0.0301537
0.0298858
0.0296465
0.0293881
0.0291846
0.0289202
0.0286511
0.0284589
0.0281869
0.027999
0.0277413
0.0274941
0.0272985
0.0270569
0.0268508
0.0266305
0.026408
0.0262027
0.0259889
0.0258189
0.0256318
0.0254238
0.0252665
0.0250423
0.024892
0.0247291
0.0245715
0.024418
0.0242615
0.0241321
0.0239908
0.0238435
0.0236908
0.0235412
0.0233972
0.0232887
0.023144
0.0229945
0.0228431
0.0227042
0.0225843
0.0224445
0.0223057
0.0221765
0.0220482
0.021936
0.0218118
0.0216782
0.0215405
0.0214469
0.0213316
0.0212155
0.0210877
0.0209805
0.0208905
0.0207814
0.0206691
0.0205736
0.0204852
0.0203936
0.0203047
0.020234
0.0201584
0.0201111
)
;

boundaryField
{
    inlet
    {
        type            fixedValue;
        value           uniform 0.1;
    }
    outlet
    {
        type            zeroGradient;
    }
    yzfaces
    {
        type            empty;
    }
}


// ************************************************************************* //
