/*--------------------------------*- C++ -*----------------------------------*\
| =========                 |                                                 |
| \\      /  F ield         | foam-extend: Open Source CFD                    |
|  \\    /   O peration     | Version:     5.0                                |
|   \\  /    A nd           | Web:         http://www.foam-extend.org         |
|    \\/     M anipulation  |                                                 |
\*---------------------------------------------------------------------------*/
FoamFile
{
    version     2.0;
    format      ascii;
    class       surfaceScalarField;
    location    "9";
    object      phi;
}
// * * * * * * * * * * * * * * * * * * * * * * * * * * * * * * * * * * * * * //

dimensions      [0 3 -1 0 0 0 0];

internalField   nonuniform List<scalar> 
99
(
1.22645e-06
1.22141e-06
1.22578e-06
1.22269e-06
1.22536e-06
1.21854e-06
1.21258e-06
1.21922e-06
1.21003e-06
1.21285e-06
1.2148e-06
1.2175e-06
1.21306e-06
1.20867e-06
1.20116e-06
1.2075e-06
1.21063e-06
1.20931e-06
1.20586e-06
1.20683e-06
1.20839e-06
1.20444e-06
1.20942e-06
1.20644e-06
1.20834e-06
1.20924e-06
1.20421e-06
1.20777e-06
1.20496e-06
1.20648e-06
1.21108e-06
1.20769e-06
1.20599e-06
1.20974e-06
1.21067e-06
1.20827e-06
1.20781e-06
1.20951e-06
1.20794e-06
1.21187e-06
1.20986e-06
1.21058e-06
1.21103e-06
1.20669e-06
1.20899e-06
1.20352e-06
1.20488e-06
1.20414e-06
1.20118e-06
1.20297e-06
1.20321e-06
1.20308e-06
1.20118e-06
1.20045e-06
1.20422e-06
1.20018e-06
1.19996e-06
1.20395e-06
1.19879e-06
1.20539e-06
1.20245e-06
1.20202e-06
1.20238e-06
1.20034e-06
1.20198e-06
1.20162e-06
1.20232e-06
1.19948e-06
1.19954e-06
1.20045e-06
1.20174e-06
1.201e-06
1.20035e-06
1.20153e-06
1.20267e-06
1.2041e-06
1.20429e-06
1.20446e-06
1.20858e-06
1.20883e-06
1.21075e-06
1.2068e-06
1.20626e-06
1.20732e-06
1.2103e-06
1.20976e-06
1.20661e-06
1.20477e-06
1.20734e-06
1.20857e-06
1.20647e-06
1.20784e-06
1.20888e-06
1.20978e-06
1.20999e-06
1.20863e-06
1.2079e-06
1.20849e-06
1.20731e-06
)
;

boundaryField
{
    inlet
    {
        type            calculated;
        value           uniform -1.225e-06;
    }
    outlet
    {
        type            calculated;
        value           uniform 1.20428e-06;
    }
    yzfaces
    {
        type            empty;
    }
}


// ************************************************************************* //
