/*--------------------------------*- C++ -*----------------------------------*\
| =========                 |                                                 |
| \\      /  F ield         | foam-extend: Open Source CFD                    |
|  \\    /   O peration     | Version:     5.0                                |
|   \\  /    A nd           | Web:         http://www.foam-extend.org         |
|    \\/     M anipulation  |                                                 |
\*---------------------------------------------------------------------------*/
FoamFile
{
    version     2.0;
    format      ascii;
    class       volVectorField;
    location    "9";
    object      U.gas;
}
// * * * * * * * * * * * * * * * * * * * * * * * * * * * * * * * * * * * * * //

dimensions      [0 1 -1 0 0 0 0];

internalField   nonuniform List<vector> 
100
(
(0.0109321 0 0)
(0.0110542 0 0)
(0.0111771 0 0)
(0.0113019 0 0)
(0.0114453 0 0)
(0.0115384 0 0)
(0.0116216 0 0)
(0.0117579 0 0)
(0.0118711 0 0)
(0.0119812 0 0)
(0.0121438 0 0)
(0.0122603 0 0)
(0.0123724 0 0)
(0.0124833 0 0)
(0.0125426 0 0)
(0.0126966 0 0)
(0.0128852 0 0)
(0.0130072 0 0)
(0.0131038 0 0)
(0.0132288 0 0)
(0.0133642 0 0)
(0.0134598 0 0)
(0.0136004 0 0)
(0.0137242 0 0)
(0.0138508 0 0)
(0.0139677 0 0)
(0.0140473 0 0)
(0.0141716 0 0)
(0.0142752 0 0)
(0.0144011 0 0)
(0.0145328 0 0)
(0.0146228 0 0)
(0.0147206 0 0)
(0.0148498 0 0)
(0.0149477 0 0)
(0.0150342 0 0)
(0.0151367 0 0)
(0.0152343 0 0)
(0.0153265 0 0)
(0.0154306 0 0)
(0.0155267 0 0)
(0.0156367 0 0)
(0.0157309 0 0)
(0.0157819 0 0)
(0.0158793 0 0)
(0.0159287 0 0)
(0.0160247 0 0)
(0.0161091 0 0)
(0.0161584 0 0)
(0.0162511 0 0)
(0.0163407 0 0)
(0.0164366 0 0)
(0.0165122 0 0)
(0.0165804 0 0)
(0.0166813 0 0)
(0.0167412 0 0)
(0.0168058 0 0)
(0.0169167 0 0)
(0.0169719 0 0)
(0.0170738 0 0)
(0.017148 0 0)
(0.0172033 0 0)
(0.0172629 0 0)
(0.01732 0 0)
(0.0173788 0 0)
(0.0174463 0 0)
(0.0175192 0 0)
(0.0175753 0 0)
(0.0176186 0 0)
(0.0176898 0 0)
(0.0177512 0 0)
(0.0178005 0 0)
(0.0178701 0 0)
(0.0179488 0 0)
(0.0180196 0 0)
(0.0180869 0 0)
(0.0181535 0 0)
(0.0182305 0 0)
(0.0183236 0 0)
(0.0184173 0 0)
(0.0184862 0 0)
(0.0185182 0 0)
(0.0185492 0 0)
(0.0186187 0 0)
(0.0186944 0 0)
(0.0187449 0 0)
(0.0187774 0 0)
(0.0187917 0 0)
(0.01885 0 0)
(0.0189064 0 0)
(0.018941 0 0)
(0.0189981 0 0)
(0.0190626 0 0)
(0.0191087 0 0)
(0.0191565 0 0)
(0.0191861 0 0)
(0.019195 0 0)
(0.0192165 0 0)
(0.0192306 0 0)
(0.0191797 0 0)
)
;

boundaryField
{
    inlet
    {
        type            fixedValue;
        value           uniform (0.005 0 0);
    }
    outlet
    {
        type            zeroGradient;
    }
    yzfaces
    {
        type            empty;
    }
}


// ************************************************************************* //
