/*--------------------------------*- C++ -*----------------------------------*\
| =========                 |                                                 |
| \\      /  F ield         | foam-extend: Open Source CFD                    |
|  \\    /   O peration     | Version:     5.0                                |
|   \\  /    A nd           | Web:         http://www.foam-extend.org         |
|    \\/     M anipulation  |                                                 |
\*---------------------------------------------------------------------------*/
FoamFile
{
    version     2.0;
    format      ascii;
    class       volVectorField;
    location    "9";
    object      U.water;
}
// * * * * * * * * * * * * * * * * * * * * * * * * * * * * * * * * * * * * * //

dimensions      [0 1 -1 0 0 0 0];

internalField   nonuniform List<vector> 
100
(
(7.96745e-06 0 0)
(1.85953e-05 0 0)
(4.37402e-05 0 0)
(5.65269e-05 0 0)
(6.78358e-05 0 0)
(8.78225e-05 0 0)
(9.13492e-05 0 0)
(0.000106043 0 0)
(0.000122323 0 0)
(0.000127236 0 0)
(0.000144952 0 0)
(0.00017964 0 0)
(0.000183262 0 0)
(0.000186969 0 0)
(0.000199661 0 0)
(0.000201236 0 0)
(0.000221967 0 0)
(0.000248136 0 0)
(0.000262389 0 0)
(0.000270978 0 0)
(0.000293152 0 0)
(0.000308867 0 0)
(0.000321396 0 0)
(0.00033742 0 0)
(0.000348704 0 0)
(0.000374269 0 0)
(0.000385202 0 0)
(0.000396281 0 0)
(0.000412436 0 0)
(0.000420953 0 0)
(0.000446791 0 0)
(0.00046487 0 0)
(0.000466414 0 0)
(0.000483168 0 0)
(0.000509855 0 0)
(0.000518244 0 0)
(0.000525316 0 0)
(0.000543626 0 0)
(0.000557762 0 0)
(0.000574875 0 0)
(0.00058684 0 0)
(0.00059197 0 0)
(0.000613095 0 0)
(0.000623765 0 0)
(0.000635513 0 0)
(0.000648763 0 0)
(0.000653101 0 0)
(0.000674461 0 0)
(0.000687531 0 0)
(0.000698658 0 0)
(0.000714756 0 0)
(0.000725872 0 0)
(0.000739153 0 0)
(0.000751909 0 0)
(0.000770435 0 0)
(0.000786479 0 0)
(0.000792107 0 0)
(0.000809745 0 0)
(0.000822905 0 0)
(0.000836991 0 0)
(0.00085561 0 0)
(0.000865354 0 0)
(0.000879194 0 0)
(0.00089037 0 0)
(0.000903775 0 0)
(0.000916482 0 0)
(0.000925818 0 0)
(0.000936383 0 0)
(0.000948112 0 0)
(0.000961651 0 0)
(0.000979245 0 0)
(0.000990796 0 0)
(0.000995722 0 0)
(0.00100732 0 0)
(0.0010236 0 0)
(0.00103943 0 0)
(0.00105039 0 0)
(0.00105976 0 0)
(0.00107485 0 0)
(0.00109031 0 0)
(0.0011061 0 0)
(0.00111791 0 0)
(0.00112529 0 0)
(0.00113726 0 0)
(0.00115653 0 0)
(0.00117147 0 0)
(0.00117882 0 0)
(0.00118705 0 0)
(0.00120094 0 0)
(0.0012186 0 0)
(0.0012271 0 0)
(0.00123434 0 0)
(0.00124894 0 0)
(0.0012637 0 0)
(0.00127497 0 0)
(0.00128541 0 0)
(0.00129655 0 0)
(0.00130712 0 0)
(0.00131783 0 0)
(0.00133023 0 0)
)
;

boundaryField
{
    inlet
    {
        type            fixedValue;
        value           uniform (0 0 0);
    }
    outlet
    {
        type            zeroGradient;
    }
    yzfaces
    {
        type            empty;
    }
}


// ************************************************************************* //
