/*--------------------------------*- C++ -*----------------------------------*\
| =========                 |                                                 |
| \\      /  F ield         | foam-extend: Open Source CFD                    |
|  \\    /   O peration     | Version:     5.0                                |
|   \\  /    A nd           | Web:         http://www.foam-extend.org         |
|    \\/     M anipulation  |                                                 |
\*---------------------------------------------------------------------------*/
FoamFile
{
    version     2.0;
    format      ascii;
    class       volVectorField;
    location    "5";
    object      U.water;
}
// * * * * * * * * * * * * * * * * * * * * * * * * * * * * * * * * * * * * * //

dimensions      [0 1 -1 0 0 0 0];

internalField   nonuniform List<vector> 
100
(
(0.00500563 0 0)
(0.00500626 0 0)
(0.00501112 0 0)
(0.00501488 0 0)
(0.00500878 0 0)
(0.00500849 0 0)
(0.00501642 0 0)
(0.00501729 0 0)
(0.00502215 0 0)
(0.00502725 0 0)
(0.0050192 0 0)
(0.00502065 0 0)
(0.00502509 0 0)
(0.00502174 0 0)
(0.00502512 0 0)
(0.00503074 0 0)
(0.00502859 0 0)
(0.00502751 0 0)
(0.00502608 0 0)
(0.00502134 0 0)
(0.00498939 0 0)
(0.00490102 0 0)
(0.00483382 0 0)
(0.00481226 0 0)
(0.00483169 0 0)
(0.00477775 0 0)
(0.00466597 0 0)
(0.00467941 0 0)
(0.00464065 0 0)
(0.00447069 0 0)
(0.00437709 0 0)
(0.00437312 0 0)
(0.00416608 0 0)
(0.00463675 0 0)
(0.00452086 0 0)
(0.00267182 0 0)
(0.000230573 0 0)
(1.99092e-05 0 0)
(1.72751e-06 0 0)
(1.49278e-07 0 0)
(1.27646e-08 0 0)
(1.11522e-09 0 0)
(9.63349e-11 0 0)
(8.23902e-12 0 0)
(7.08595e-13 0 0)
(6.17197e-14 0 0)
(5.23042e-15 0 0)
(4.54144e-16 0 0)
(3.89473e-17 0 0)
(3.2971e-18 0 0)
(2.83896e-19 0 0)
(2.42029e-20 0 0)
(2.04715e-21 0 0)
(1.74883e-22 0 0)
(1.50927e-23 0 0)
(1.27271e-24 0 0)
(1.08896e-25 0 0)
(9.2985e-27 0 0)
(7.94847e-28 0 0)
(6.80526e-29 0 0)
(5.91532e-30 0 0)
(5.03996e-31 0 0)
(4.34287e-32 0 0)
(3.74078e-33 0 0)
(3.25952e-34 0 0)
(2.77324e-35 0 0)
(2.42088e-36 0 0)
(2.06645e-37 0 0)
(1.79476e-38 0 0)
(1.52822e-39 0 0)
(1.31884e-40 0 0)
(1.13454e-41 0 0)
(9.79535e-43 0 0)
(8.42241e-44 0 0)
(7.33464e-45 0 0)
(6.24681e-46 0 0)
(5.40669e-47 0 0)
(4.62753e-48 0 0)
(3.97459e-49 0 0)
(3.36106e-50 0 0)
(2.8729e-51 0 0)
(2.4534e-52 0 0)
(2.12159e-53 0 0)
(1.78731e-54 0 0)
(1.52057e-55 0 0)
(1.29304e-56 0 0)
(1.11405e-57 0 0)
(9.45007e-59 0 0)
(7.92428e-60 0 0)
(6.80298e-61 0 0)
(5.77208e-62 0 0)
(4.87117e-63 0 0)
(4.07422e-64 0 0)
(3.43154e-65 0 0)
(2.92556e-66 0 0)
(2.42972e-67 0 0)
(2.06561e-68 0 0)
(1.71607e-69 0 0)
(1.45363e-70 0 0)
(1.11759e-71 0 0)
)
;

boundaryField
{
    inlet
    {
        type            fixedValue;
        value           uniform (0.005 0 0);
    }
    outlet
    {
        type            zeroGradient;
    }
    yzfaces
    {
        type            empty;
    }
}


// ************************************************************************* //
