/*--------------------------------*- C++ -*----------------------------------*\
| =========                 |                                                 |
| \\      /  F ield         | foam-extend: Open Source CFD                    |
|  \\    /   O peration     | Version:     5.0                                |
|   \\  /    A nd           | Web:         http://www.foam-extend.org         |
|    \\/     M anipulation  |                                                 |
\*---------------------------------------------------------------------------*/
FoamFile
{
    version     2.0;
    format      ascii;
    class       volScalarField;
    location    "5";
    object      XCO2;
}
// * * * * * * * * * * * * * * * * * * * * * * * * * * * * * * * * * * * * * //

dimensions      [0 0 0 0 0 0 0];

internalField   nonuniform List<scalar> 
100
(
7.03308e+07
-1.19737e+08
4.46002e+07
3.76019e+08
-2.01741e+09
7.20707e+09
-2.20552e+10
6.15846e+10
-1.61237e+11
4.00156e+11
-9.48866e+11
2.15797e+12
-4.7127e+12
9.89761e+12
-2.0041e+13
3.91786e+13
-7.41705e+13
1.36702e+14
-2.47061e+14
4.44152e+14
-8.1437e+14
1.57343e+15
-3.239e+15
6.67384e+15
-1.26286e+16
2.84285e+16
-1.43018e+17
8.45333e+17
-2.98567e+18
-1.89119e+18
9.35876e+19
-3.7316e+20
-4.28074e+21
-1.35525e+22
-2.43564e+22
-2.69804e+22
-3.93105e+21
-4.0663e+19
-3.53826e+16
-2.68439e+12
-1.71562e+07
-8.58655
1
1
1
1
1
1
1
1
1
1
1
1
1
1
1
1
1
1
1
1
1
1
1
1
1
1
1
1
1
1
1
1
1
1
1
1
1
1
1
1
1
1
1
1
1
1
1
1
1
1
1
1
1
1
1
1
1
1
)
;

boundaryField
{
    inlet
    {
        type            calculated;
        value           uniform 0.5;
    }
    outlet
    {
        type            calculated;
        value           uniform 1;
    }
    yzfaces
    {
        type            empty;
    }
}


// ************************************************************************* //
