/*--------------------------------*- C++ -*----------------------------------*\
| =========                 |                                                 |
| \\      /  F ield         | foam-extend: Open Source CFD                    |
|  \\    /   O peration     | Version:     5.0                                |
|   \\  /    A nd           | Web:         http://www.foam-extend.org         |
|    \\/     M anipulation  |                                                 |
\*---------------------------------------------------------------------------*/
FoamFile
{
    version     2.0;
    format      ascii;
    class       volVectorField;
    location    "4";
    object      U.gas;
}
// * * * * * * * * * * * * * * * * * * * * * * * * * * * * * * * * * * * * * //

dimensions      [0 1 -1 0 0 0 0];

internalField   nonuniform List<vector> 
100
(
(0.000170224 0 0)
(0.000381788 0 0)
(0.00058157 0 0)
(0.000777436 0 0)
(0.000972656 0 0)
(0.00117207 0 0)
(0.0013753 0 0)
(0.00158564 0 0)
(0.00180825 0 0)
(0.00204816 0 0)
(0.00231241 0 0)
(0.00261795 0 0)
(0.00299611 0 0)
(0.0035071 0 0)
(0.00426202 0 0)
(0.00537049 0 0)
(0.0061512 0 0)
(0.00564409 0 0)
(0.00534012 0 0)
(0.00523003 0 0)
(0.00513378 0 0)
(0.00507709 0 0)
(0.00504996 0 0)
(0.00498778 0 0)
(0.0049444 0 0)
(0.00497641 0 0)
(0.00494897 0 0)
(0.00497244 0 0)
(0.00498882 0 0)
(0.00489622 0 0)
(0.00498734 0 0)
(0.00504815 0 0)
(0.00501774 0 0)
(0.00501774 0 0)
(0.00501774 0 0)
(0.00498733 0 0)
(0.00495692 0 0)
(0.00501774 0 0)
(0.00513938 0 0)
(0.00513938 0 0)
(0.00510897 0 0)
(0.00513938 0 0)
(0.00504815 0 0)
(0.00495692 0 0)
(0.00492651 0 0)
(0.00495692 0 0)
(0.00498733 0 0)
(0.00495692 0 0)
(0.00495692 0 0)
(0.00495692 0 0)
(0.00486569 0 0)
(0.00477445 0 0)
(0.00483527 0 0)
(0.0048961 0 0)
(0.0048961 0 0)
(0.00498733 0 0)
(0.00507856 0 0)
(0.00510897 0 0)
(0.00510897 0 0)
(0.00507856 0 0)
(0.00513938 0 0)
(0.0052002 0 0)
(0.00516979 0 0)
(0.0052002 0 0)
(0.0052002 0 0)
(0.00513938 0 0)
(0.00510897 0 0)
(0.00510897 0 0)
(0.00510897 0 0)
(0.00510897 0 0)
(0.00507856 0 0)
(0.00516979 0 0)
(0.00529143 0 0)
(0.00535225 0 0)
(0.00535225 0 0)
(0.00529143 0 0)
(0.00529143 0 0)
(0.00529143 0 0)
(0.00538266 0 0)
(0.00541307 0 0)
(0.00535225 0 0)
(0.00535225 0 0)
(0.00529143 0 0)
(0.00526102 0 0)
(0.0052002 0 0)
(0.00510897 0 0)
(0.00507856 0 0)
(0.00507856 0 0)
(0.00507856 0 0)
(0.00504815 0 0)
(0.00507856 0 0)
(0.00507856 0 0)
(0.00507856 0 0)
(0.00507856 0 0)
(0.00507856 0 0)
(0.00504815 0 0)
(0.00504815 0 0)
(0.00510897 0 0)
(0.0052002 0 0)
(0.00526102 0 0)
)
;

boundaryField
{
    inlet
    {
        type            fixedValue;
        value           uniform (0 0 0);
    }
    outlet
    {
        type            zeroGradient;
    }
    yzfaces
    {
        type            empty;
    }
}


// ************************************************************************* //
