/*--------------------------------*- C++ -*----------------------------------*\
| =========                 |                                                 |
| \\      /  F ield         | foam-extend: Open Source CFD                    |
|  \\    /   O peration     | Version:     5.0                                |
|   \\  /    A nd           | Web:         http://www.foam-extend.org         |
|    \\/     M anipulation  |                                                 |
\*---------------------------------------------------------------------------*/
FoamFile
{
    version     2.0;
    format      ascii;
    class       volScalarField;
    location    "4";
    object      XCO2;
}
// * * * * * * * * * * * * * * * * * * * * * * * * * * * * * * * * * * * * * //

dimensions      [0 0 0 0 0 0 0];

internalField   nonuniform List<scalar> 
100
(
906731
-2.38493e+06
4.76261e+06
-1.00858e+07
2.12321e+07
-4.5236e+07
9.70434e+07
-2.08952e+08
4.47267e+08
-9.39339e+08
1.90089e+09
-3.59598e+09
5.96631e+09
-7.08482e+09
-2.02328e+09
5.27175e+10
-2.43012e+11
8.7056e+11
-2.789e+12
8.24429e+12
-2.14209e+13
4.2159e+13
-2.98135e+13
-1.27414e+14
-2.91266e+14
8.97679e+15
-3.55262e+16
-4.0377e+17
-1.21774e+18
-2.02972e+18
-1.78899e+18
-1.53886e+17
-8.94069e+14
-4.3006e+11
-1.7238e+07
-59.1816
0.999982
1
1
1
1
1
1
1
1
1
1
1
1
1
1
1
1
1
1
1
1
1
1
1
1
1
1
1
1
1
1
1
1
1
1
1
1
1
1
1
1
1
1
1
1
1
1
1
1
1
1
1
1
1
1
1
1
1
1
1
1
1
1
1
)
;

boundaryField
{
    inlet
    {
        type            calculated;
        value           uniform 0.5;
    }
    outlet
    {
        type            calculated;
        value           uniform 1;
    }
    yzfaces
    {
        type            empty;
    }
}


// ************************************************************************* //
