/*--------------------------------*- C++ -*----------------------------------*\
| =========                 |                                                 |
| \\      /  F ield         | foam-extend: Open Source CFD                    |
|  \\    /   O peration     | Version:     5.0                                |
|   \\  /    A nd           | Web:         http://www.foam-extend.org         |
|    \\/     M anipulation  |                                                 |
\*---------------------------------------------------------------------------*/
FoamFile
{
    version     2.0;
    format      ascii;
    class       volScalarField;
    location    "4";
    object      XH2O;
}
// * * * * * * * * * * * * * * * * * * * * * * * * * * * * * * * * * * * * * //

dimensions      [0 0 0 0 0 0 0];

internalField   nonuniform List<scalar> 
100
(
-906730
2.38494e+06
-4.76261e+06
1.00858e+07
-2.12321e+07
4.5236e+07
-9.70434e+07
2.08952e+08
-4.47267e+08
9.39339e+08
-1.90089e+09
3.59598e+09
-5.96631e+09
7.08482e+09
2.02328e+09
-5.27175e+10
2.43012e+11
-8.7056e+11
2.789e+12
-8.24429e+12
2.14209e+13
-4.2159e+13
2.98135e+13
1.27414e+14
2.91266e+14
-8.97679e+15
3.55262e+16
4.0377e+17
1.21774e+18
2.02972e+18
1.78899e+18
1.53886e+17
8.94069e+14
4.3006e+11
1.7238e+07
60.1816
1.81634e-05
4.81177e-13
1.10517e-21
2.25303e-31
3.99076e-42
6.28176e-54
8.56986e-67
1.014e-80
1.03866e-95
9.16653e-112
7.09805e-129
4.78856e-147
2.74266e-166
1.38079e-186
5.98172e-208
2.21806e-230
6.93408e-254
1.877e-278
4.33897e-304
0
0
0
0
0
0
0
0
0
0
0
0
0
0
0
0
0
0
0
0
0
0
0
0
0
0
0
0
0
0
0
0
0
0
0
0
0
0
0
0
0
0
0
0
0
)
;

boundaryField
{
    inlet
    {
        type            fixedValue;
        value           uniform 0.5;
    }
    outlet
    {
        type            zeroGradient;
    }
    yzfaces
    {
        type            empty;
    }
}


// ************************************************************************* //
