/*--------------------------------*- C++ -*----------------------------------*\
| =========                 |                                                 |
| \\      /  F ield         | foam-extend: Open Source CFD                    |
|  \\    /   O peration     | Version:     5.0                                |
|   \\  /    A nd           | Web:         http://www.foam-extend.org         |
|    \\/     M anipulation  |                                                 |
\*---------------------------------------------------------------------------*/
FoamFile
{
    version     2.0;
    format      ascii;
    class       regIOobject;
    location    "6/uniform";
    object      profilingInfo;
}
// * * * * * * * * * * * * * * * * * * * * * * * * * * * * * * * * * * * * * //

profilingInfo
(

    {
        id              4;
        parentId        3;
        description     "Foam::Time::writeObject - outputTime";
        calls           6;
        totalTime       0.335839;
        childTime       0;
        onStack         1;
    }

    {
        id              3;
        parentId        1;
        description     "Foam::Time::writeObject";
        calls           176;
        totalTime       0.336534;
        childTime       0.335839;
        onStack         1;
    }

    {
        id              1;
        description     "application::main";
        calls           1;
        totalTime       2.8469;
        childTime       0.336559;
        onStack         1;
    }

    {
        id              2;
        parentId        1;
        description     "functionObjectList::read";
        calls           1;
        totalTime       2.5e-05;
        childTime       0;
        onStack         0;
    }
);


// ************************************************************************* //
