/*--------------------------------*- C++ -*----------------------------------*\
| =========                 |                                                 |
| \\      /  F ield         | foam-extend: Open Source CFD                    |
|  \\    /   O peration     | Version:     5.0                                |
|   \\  /    A nd           | Web:         http://www.foam-extend.org         |
|    \\/     M anipulation  |                                                 |
\*---------------------------------------------------------------------------*/
FoamFile
{
    version     2.0;
    format      ascii;
    class       surfaceScalarField;
    location    "5";
    object      phi;
}
// * * * * * * * * * * * * * * * * * * * * * * * * * * * * * * * * * * * * * //

dimensions      [0 3 -1 0 0 0 0];

internalField   nonuniform List<scalar> 
99
(
1.22561e-06
1.22408e-06
1.22692e-06
1.22495e-06
1.22305e-06
1.224e-06
1.22617e-06
1.22373e-06
1.22792e-06
1.22564e-06
1.22348e-06
1.2259e-06
1.22525e-06
1.22393e-06
1.22667e-06
1.22653e-06
1.22563e-06
1.2263e-06
1.22599e-06
1.22765e-06
1.22459e-06
1.22726e-06
1.22462e-06
1.23499e-06
1.23481e-06
1.20801e-06
1.22189e-06
1.20687e-06
1.20891e-06
1.21335e-06
1.23847e-06
1.16883e-06
1.23756e-06
1.20706e-06
1.2517e-06
1.2666e-06
1.2666e-06
1.3113e-06
1.3411e-06
1.2964e-06
1.3113e-06
1.3113e-06
1.3113e-06
1.2815e-06
1.3262e-06
1.3113e-06
1.3113e-06
1.37091e-06
1.35601e-06
1.37091e-06
1.38581e-06
1.3411e-06
1.37091e-06
1.41561e-06
1.40071e-06
1.41561e-06
1.40071e-06
1.41561e-06
1.40071e-06
1.43051e-06
1.43051e-06
1.41561e-06
1.41561e-06
1.43051e-06
1.41561e-06
1.41561e-06
1.38581e-06
1.40071e-06
1.38581e-06
1.37091e-06
1.3411e-06
1.3262e-06
1.3262e-06
1.35601e-06
1.3113e-06
1.3262e-06
1.3411e-06
1.35601e-06
1.37091e-06
1.37091e-06
1.37091e-06
1.38581e-06
1.35601e-06
1.37091e-06
1.35601e-06
1.38581e-06
1.41561e-06
1.40071e-06
1.43051e-06
1.44541e-06
1.44541e-06
1.40071e-06
1.44541e-06
1.41561e-06
1.43051e-06
1.44541e-06
1.44541e-06
1.46031e-06
1.47521e-06
)
;

boundaryField
{
    inlet
    {
        type            calculated;
        value           uniform -1.225e-06;
    }
    outlet
    {
        type            calculated;
        value           uniform 1.40071e-06;
    }
    yzfaces
    {
        type            empty;
    }
}


// ************************************************************************* //
