/*--------------------------------*- C++ -*----------------------------------*\
| =========                 |                                                 |
| \\      /  F ield         | foam-extend: Open Source CFD                    |
|  \\    /   O peration     | Version:     5.0                                |
|   \\  /    A nd           | Web:         http://www.foam-extend.org         |
|    \\/     M anipulation  |                                                 |
\*---------------------------------------------------------------------------*/
FoamFile
{
    version     2.0;
    format      ascii;
    class       volScalarField;
    location    "5";
    object      XCO2;
}
// * * * * * * * * * * * * * * * * * * * * * * * * * * * * * * * * * * * * * //

dimensions      [0 0 0 0 0 0 0];

internalField   nonuniform List<scalar> 
100
(
-0.0069737
0.00975875
0.00122153
0.00347689
-0.00387115
0.0102205
-0.00413847
0.0121221
0.00112162
0.00931479
0.00459559
0.00988783
0.00666026
0.00770954
0.00817806
0.0131211
0.00767069
0.0113178
0.0186899
0.0210754
0.0296534
0.074651
0.177252
0.326762
0.45699
0.586739
0.690219
0.791997
0.861353
0.921034
0.961037
0.985074
0.996519
0.999598
0.999966
0.999997
1
1
1
1
1
1
1
1
1
1
1
1
1
1
1
1
1
1
1
1
1
1
1
1
1
1
1
1
1
1
1
1
1
1
1
1
1
1
1
1
1
1
1
1
1
1
1
1
1
1
1
1
1
1
1
1
1
1
1
1
1
1
1
1
)
;

boundaryField
{
    inlet
    {
        type            calculated;
        value           uniform 0;
    }
    outlet
    {
        type            calculated;
        value           uniform 1;
    }
    yzfaces
    {
        type            empty;
    }
}


// ************************************************************************* //
