/*--------------------------------*- C++ -*----------------------------------*\
| =========                 |                                                 |
| \\      /  F ield         | foam-extend: Open Source CFD                    |
|  \\    /   O peration     | Version:     5.0                                |
|   \\  /    A nd           | Web:         http://www.foam-extend.org         |
|    \\/     M anipulation  |                                                 |
\*---------------------------------------------------------------------------*/
FoamFile
{
    version     2.0;
    format      ascii;
    class       volScalarField;
    location    "4000";
    object      alpha.gas;
}
// * * * * * * * * * * * * * * * * * * * * * * * * * * * * * * * * * * * * * //

dimensions      [0 0 0 0 0 0 0];

internalField   nonuniform List<scalar> 
1000
(
0
0
0
0
0
0
0
0
0
0
0
0
0
0
0
0
0
0
0
0
0
0
0
0
0
0
0
0
0
0
0
0
0
0
0
0
0
0
0
0
0
0
0
0
0
0
0
0
0
0
0
0
0
0
0
0
0
0
0
0
0
0
0
0
0
0
4.69623e-22
1.52689e-12
3.19997e-07
0.000274332
0.0100752
0.0297723
0.0598419
0.083566
0.0998817
0.113207
0.0999159
0.119161
0.101941
0.115677
0.124453
0.110327
0.0890786
0.133105
0.123996
0.126817
0.129699
0.132659
0.135697
0.152703
0.156568
0.175223
0.150213
0.123263
0.165379
0.153966
0.199921
0.172903
0.187961
0.16832
0
0
0
0
0
0
0
0
0
0
0
0
0
0
0
0
0
0
0
0
0
0
0
0
0
0
0
0
0
0
0
0
0
0
0
0
0
0
0
0
0
0
0
0
0
0
0
0
0
0
0
0
0
0
0
0
0
0
0
0
0
0
0
0
0
0
1.24908e-09
2.95008e-05
0.00311459
0.0325186
0.0524516
0.073075
0.0720009
0.0861415
0.0792938
0.130554
0.135764
0.1284
0.131637
0.128555
0.118746
0.0954853
0.142076
0.10544
0.113732
0.129139
0.16602
0.169733
0.12299
0.139807
0.142514
0.11476
0.147781
0.182687
0.154985
0.125317
0.170488
0.131596
0.21562
0.150791
0
0
0
0
0
0
0
0
0
0
0
0
0
0
0
0
0
0
0
0
0
0
0
0
0
0
0
0
0
0
0
0
0
0
0
0
0
0
0
0
0
0
0
0
0
0
0
0
0
0
0
0
0
0
0
0
0
0
0
0
0
0
0
0
0
0
9.99955e-13
6.58128e-07
0.000457597
0.0107034
0.0489878
0.0785199
0.0951073
0.119458
0.101049
0.0990456
0.10734
0.09263
0.123837
0.0905067
0.122504
0.0999474
0.152172
0.142638
0.112429
0.140955
0.116243
0.159611
0.170009
0.159295
0.140421
0.173093
0.169409
0.165487
0.193586
0.199164
0.13697
0.140091
0.215382
0.159783
0
0
0
0
0
0
0
0
0
0
0
0
0
0
0
0
0
0
0
0
0
0
0
0
0
0
0
0
0
0
0
0
0
0
0
0
0
0
0
0
0
0
0
0
0
0
0
0
0
0
0
0
0
0
0
0
0
0
0
0
0
0
0
0
0
0
2.48705e-10
9.16798e-06
0.00236978
0.0271506
0.056778
0.0988616
0.0822456
0.123028
0.114208
0.101519
0.121448
0.106824
0.133207
0.111471
0.132353
0.134972
0.144113
0.153672
0.102314
0.138319
0.112704
0.121567
0.138095
0.118438
0.135378
0.130204
0.148134
0.190985
0.171723
0.159404
0.137667
0.167333
0.145398
0.168722
0
0
0
0
0
0
0
0
0
0
0
0
0
0
0
0
0
0
0
0
0
0
0
0
0
0
0
0
0
0
0
0
0
0
0
0
0
0
0
0
0
0
0
0
0
0
0
0
0
0
0
0
0
0
0
0
0
0
0
0
0
0
0
0
0
0
7.23444e-12
1.56262e-06
0.000858597
0.0194535
0.0600267
0.0844661
0.0749057
0.079558
0.108909
0.0812523
0.0832592
0.136118
0.0936671
0.143094
0.146874
0.125378
0.11499
0.155852
0.119446
0.148337
0.144391
0.168158
0.143244
0.145945
0.156185
0.167012
0.178564
0.175108
0.138805
0.125126
0.14465
0.191789
0.162688
0.168548
0
0
0
0
0
0
0
0
0
0
0
0
0
0
0
0
0
0
0
0
0
0
0
0
0
0
0
0
0
0
0
0
0
0
0
0
0
0
0
0
0
0
0
0
0
0
0
0
0
0
0
0
0
0
0
0
0
0
0
0
0
0
0
0
0
0
4.60062e-12
1.16716e-06
0.000889506
0.0182528
0.0429657
0.0845114
0.103207
0.0943499
0.0991726
0.113773
0.112035
0.10931
0.111809
0.138163
0.14145
0.132044
0.121815
0.11089
0.119211
0.107675
0.122855
0.159492
0.169895
0.166444
0.133113
0.127919
0.168334
0.140916
0.191607
0.131366
0.13399
0.205305
0.212782
0.212915
0
0
0
0
0
0
0
0
0
0
0
0
0
0
0
0
0
0
0
0
0
0
0
0
0
0
0
0
0
0
0
0
0
0
0
0
0
0
0
0
0
0
0
0
0
0
0
0
0
0
0
0
0
0
0
0
0
0
0
0
0
0
0
0
0
3.6564e-14
1.12374e-07
0.000239519
0.00865779
0.042603
0.083904
0.068689
0.0881003
0.108626
0.130133
0.112938
0.104373
0.142086
0.127547
0.111603
0.100912
0.108823
0.142993
0.112674
0.14128
0.143895
0.146591
0.120923
0.151728
0.140004
0.150114
0.114876
0.132277
0.182291
0.130171
0.124458
0.203011
0.157544
0.198238
0.150547
0
0
0
0
0
0
0
0
0
0
0
0
0
0
0
0
0
0
0
0
0
0
0
0
0
0
0
0
0
0
0
0
0
0
0
0
0
0
0
0
0
0
0
0
0
0
0
0
0
0
0
0
0
0
0
0
0
0
0
0
0
0
0
0
0
3.61245e-12
1.04564e-06
0.000717494
0.017034
0.0512446
0.0787929
0.0880368
0.105403
0.127603
0.0891415
0.131129
0.0880795
0.101506
0.0911733
0.104873
0.150473
0.0961659
0.155908
0.152604
0.115071
0.157996
0.140188
0.121298
0.10868
0.110175
0.141509
0.17446
0.155264
0.142729
0.137552
0.123848
0.193447
0.190882
0.161567
0.204038
0
0
0
0
0
0
0
0
0
0
0
0
0
0
0
0
0
0
0
0
0
0
0
0
0
0
0
0
0
0
0
0
0
0
0
0
0
0
0
0
0
0
0
0
0
0
0
0
0
0
0
0
0
0
0
0
0
0
0
0
0
0
0
0
0
2.42845e-10
9.15268e-06
0.00237735
0.0246295
0.0666233
0.0845123
0.0961009
0.103307
0.11386
0.107023
0.109966
0.136279
0.103336
0.105067
0.131845
0.147166
0.124043
0.132675
0.114683
0.136814
0.139107
0.148548
0.151237
0.110041
0.111519
0.143187
0.153459
0.133045
0.135399
0.194703
0.183558
0.128777
0.131551
0.179491
0.195402
0
0
0
0
0
0
0
0
0
0
0
0
0
0
0
0
0
0
0
0
0
0
0
0
0
0
0
0
0
0
0
0
0
0
0
0
0
0
0
0
0
0
0
0
0
0
0
0
0
0
0
0
0
0
0
0
0
0
0
0
0
0
0
0
2.96848e-12
1.21368e-06
0.000754239
0.0183333
0.0498022
0.0868641
0.103898
0.113896
0.120538
0.0955314
0.0915229
0.142763
0.146566
0.130347
0.139154
0.154944
0.10287
0.13848
0.147463
0.121168
0.122517
0.160329
0.11109
0.127123
0.158885
0.146065
0.156
0.118931
0.136381
0.179069
0.12475
0.185623
0.173062
0.168627
0.173356
0.151146
)
;

boundaryField
{
    inlet
    {
        type            fixedValue;
        value           uniform 0.2;
    }
    outlet
    {
        type            zeroGradient;
    }
    walls
    {
        type            zeroGradient;
    }
}


// ************************************************************************* //
