/*--------------------------------*- C++ -*----------------------------------*\
| =========                 |                                                 |
| \\      /  F ield         | foam-extend: Open Source CFD                    |
|  \\    /   O peration     | Version:     5.0                                |
|   \\  /    A nd           | Web:         http://www.foam-extend.org         |
|    \\/     M anipulation  |                                                 |
\*---------------------------------------------------------------------------*/
FoamFile
{
    version     2.0;
    format      ascii;
    class       volScalarField;
    location    "4000";
    object      alpha.oil;
}
// * * * * * * * * * * * * * * * * * * * * * * * * * * * * * * * * * * * * * //

dimensions      [0 0 0 0 0 0 0];

internalField   nonuniform List<scalar> 
1000
(
0.18
0.16
0.22
0.19
0.23
0.17
0.16
0.15
0.18
0.2
0.2
0.16
0.19
0.18
0.18
0.22
0.24
0.22
0.15
0.23
0.17
0.24
0.19
0.18
0.15
0.19
0.23
0.18
0.22
0.23
0.21
0.2
0.22
0.22
0.19
0.24
0.24
0.23
0.16
0.19
0.18
0.17
0.19
0.21
0.2
0.19
0.21
0.15
0.16
0.22
0.23
0.18
0.23
0.2
0.15
0.18
0.16
0.23
0.24
0.24
0.22
0.21
0.21
0.22
0.15
0.24
0.21
0.2
0.16
0.149726
0.199925
0.120228
0.140158
0.136434
0.130118
0.126793
0.100084
0.110839
0.0880589
0.0943231
0.0955471
0.0796729
0.0609214
0.0868954
0.0760042
0.0731835
0.0703007
0.0673411
0.0643029
0.0672972
0.0634316
0.0647767
0.0497868
0.0367371
0.0446206
0.0360341
0.0400789
0.0270972
0.0220386
0.0116797
0.21
0.21
0.19
0.16
0.15
0.18
0.15
0.17
0.24
0.18
0.22
0.2
0.2
0.17
0.18
0.22
0.17
0.18
0.19
0.24
0.23
0.18
0.19
0.15
0.2
0.17
0.21
0.21
0.23
0.21
0.24
0.19
0.16
0.21
0.19
0.23
0.2
0.2
0.2
0.19
0.16
0.18
0.24
0.21
0.22
0.17
0.21
0.16
0.2
0.19
0.2
0.17
0.17
0.24
0.22
0.16
0.15
0.2
0.23
0.24
0.16
0.18
0.23
0.21
0.15
0.24
0.15
0.22997
0.166885
0.187481
0.0975484
0.096925
0.0779991
0.0838585
0.0707062
0.109446
0.104236
0.0916001
0.0883626
0.0814449
0.0712543
0.0545147
0.077924
0.0545596
0.0562681
0.0608612
0.0739797
0.0702672
0.0470102
0.0501931
0.0474857
0.0352397
0.0422186
0.0473129
0.0350154
0.0246832
0.029512
0.0184036
0.0243804
0.00920927
0.23
0.17
0.15
0.19
0.17
0.22
0.21
0.23
0.17
0.15
0.21
0.16
0.2
0.2
0.17
0.15
0.24
0.24
0.22
0.19
0.16
0.23
0.19
0.2
0.22
0.16
0.19
0.21
0.19
0.23
0.16
0.21
0.22
0.2
0.19
0.16
0.2
0.16
0.17
0.15
0.16
0.22
0.19
0.16
0.2
0.2
0.23
0.2
0.16
0.24
0.15
0.16
0.22
0.22
0.2
0.2
0.2
0.18
0.19
0.22
0.16
0.21
0.18
0.18
0.18
0.24
0.22
0.179999
0.159542
0.159297
0.171012
0.13148
0.114893
0.120542
0.0889509
0.0809544
0.0826597
0.06737
0.0861632
0.0594933
0.0774957
0.0600526
0.0878283
0.0773615
0.0575712
0.0690453
0.0537567
0.0703888
0.069991
0.060705
0.0495789
0.0569071
0.0505905
0.0445135
0.0464144
0.0408357
0.0230304
0.0199086
0.0246184
0.0102172
0.21
0.19
0.17
0.23
0.22
0.16
0.23
0.19
0.19
0.18
0.15
0.22
0.21
0.24
0.2
0.18
0.15
0.15
0.22
0.19
0.16
0.2
0.17
0.22
0.19
0.18
0.21
0.16
0.21
0.24
0.22
0.24
0.15
0.24
0.16
0.18
0.24
0.2
0.24
0.16
0.23
0.24
0.19
0.18
0.2
0.15
0.23
0.2
0.18
0.16
0.17
0.19
0.17
0.19
0.16
0.23
0.22
0.19
0.18
0.16
0.21
0.24
0.22
0.23
0.17
0.15
0.2
0.159991
0.22763
0.182849
0.123222
0.141138
0.0877544
0.116972
0.0957924
0.0784809
0.0885522
0.0731759
0.086793
0.0685286
0.0776466
0.0750276
0.0758867
0.0763275
0.0476859
0.0616813
0.0472964
0.0484335
0.0519053
0.0415621
0.0446222
0.0397957
0.0418657
0.0490145
0.0382774
0.0305964
0.0223335
0.0226672
0.0146019
0.0112778
0.15
0.24
0.17
0.23
0.24
0.23
0.19
0.23
0.15
0.22
0.17
0.17
0.24
0.24
0.21
0.22
0.19
0.15
0.16
0.17
0.24
0.24
0.2
0.22
0.24
0.2
0.23
0.24
0.16
0.23
0.2
0.22
0.22
0.16
0.17
0.21
0.21
0.22
0.21
0.24
0.15
0.2
0.2
0.2
0.21
0.16
0.19
0.23
0.22
0.21
0.2
0.16
0.23
0.15
0.15
0.21
0.21
0.19
0.17
0.2
0.18
0.18
0.23
0.15
0.2
0.22
0.2
0.159998
0.199141
0.220547
0.159973
0.125534
0.0850943
0.080442
0.101091
0.0687477
0.0667408
0.103882
0.0663329
0.096906
0.0931258
0.0746222
0.0650098
0.0841479
0.0605542
0.0716631
0.065609
0.0718418
0.0567561
0.0540554
0.0538147
0.0529878
0.0514363
0.0448915
0.0311945
0.0248743
0.02535
0.0282113
0.017312
0.0114516
0.2
0.22
0.2
0.19
0.17
0.17
0.21
0.24
0.18
0.16
0.22
0.2
0.18
0.17
0.17
0.16
0.18
0.16
0.16
0.19
0.23
0.16
0.21
0.15
0.22
0.15
0.2
0.17
0.24
0.16
0.22
0.19
0.21
0.23
0.15
0.18
0.18
0.22
0.23
0.15
0.2
0.18
0.16
0.22
0.19
0.2
0.15
0.15
0.15
0.15
0.18
0.16
0.22
0.21
0.19
0.16
0.18
0.19
0.15
0.23
0.16
0.22
0.19
0.24
0.19
0.22
0.23
0.149999
0.23911
0.201747
0.117034
0.145489
0.126793
0.0956501
0.0908274
0.0962269
0.0879649
0.0806903
0.0781913
0.091837
0.0885505
0.0779562
0.0681846
0.0591095
0.0607889
0.0523254
0.0571448
0.0705079
0.0701053
0.0635564
0.046887
0.0420808
0.0516662
0.0390838
0.0483926
0.0286339
0.0260096
0.0346953
0.0272178
0.0170853
0.18
0.15
0.16
0.22
0.19
0.21
0.23
0.23
0.15
0.19
0.17
0.24
0.21
0.22
0.23
0.23
0.18
0.24
0.17
0.22
0.17
0.2
0.19
0.2
0.17
0.15
0.2
0.18
0.15
0.2
0.22
0.16
0.2
0.18
0.19
0.23
0.24
0.22
0.15
0.19
0.15
0.18
0.21
0.24
0.17
0.22
0.2
0.24
0.2
0.23
0.16
0.15
0.15
0.23
0.16
0.21
0.18
0.24
0.2
0.19
0.15
0.18
0.19
0.22
0.15
0.18
0.16
0.19976
0.171342
0.157397
0.146096
0.081311
0.0918997
0.101374
0.109867
0.0870617
0.0756265
0.0979137
0.0824526
0.0683974
0.0590878
0.0611771
0.077007
0.0573256
0.0687198
0.0661047
0.0634093
0.0490774
0.058272
0.0499963
0.0498864
0.0351239
0.037723
0.0477088
0.0298294
0.0255419
0.0369887
0.0224557
0.0217623
0.00945315
0.19
0.15
0.19
0.17
0.21
0.19
0.16
0.24
0.23
0.22
0.23
0.18
0.18
0.22
0.23
0.21
0.18
0.19
0.16
0.16
0.21
0.21
0.24
0.24
0.15
0.15
0.15
0.17
0.2
0.18
0.18
0.21
0.22
0.16
0.15
0.17
0.23
0.23
0.23
0.17
0.2
0.16
0.24
0.18
0.23
0.24
0.24
0.17
0.24
0.15
0.21
0.18
0.23
0.19
0.18
0.2
0.24
0.15
0.15
0.21
0.2
0.17
0.24
0.16
0.24
0.18
0.149999
0.199283
0.202966
0.138755
0.121207
0.101963
0.104597
0.112397
0.0708585
0.0988707
0.0619205
0.0684945
0.0588267
0.0651274
0.0895272
0.0538341
0.0840924
0.0773961
0.0549292
0.072004
0.0598123
0.0487018
0.0413199
0.0398246
0.0484908
0.0555397
0.0447362
0.037271
0.0324484
0.0261519
0.0365526
0.0291184
0.0184326
0.0159617
0.18
0.2
0.21
0.15
0.22
0.22
0.17
0.19
0.17
0.15
0.23
0.18
0.17
0.18
0.18
0.17
0.2
0.24
0.2
0.22
0.15
0.2
0.19
0.22
0.22
0.18
0.17
0.19
0.24
0.24
0.17
0.15
0.17
0.17
0.15
0.18
0.22
0.18
0.24
0.2
0.24
0.18
0.2
0.18
0.16
0.2
0.17
0.23
0.15
0.22
0.15
0.19
0.2
0.24
0.15
0.18
0.24
0.15
0.22
0.24
0.22
0.18
0.19
0.19
0.2
0.17
0.159991
0.227623
0.16537
0.153377
0.115488
0.103899
0.0966929
0.0961397
0.0829768
0.0800343
0.0937209
0.0666643
0.0649332
0.0781546
0.0828335
0.065957
0.0673253
0.0553172
0.0631857
0.0608935
0.0614519
0.0587625
0.0399593
0.0384806
0.0468128
0.0465411
0.036955
0.0346013
0.045297
0.0364416
0.021223
0.0184492
0.0205094
0.0145976
0.24
0.17
0.18
0.23
0.15
0.17
0.2
0.24
0.2
0.23
0.16
0.22
0.21
0.19
0.21
0.24
0.23
0.16
0.15
0.19
0.17
0.21
0.23
0.2
0.19
0.23
0.15
0.22
0.22
0.23
0.17
0.16
0.19
0.2
0.24
0.21
0.16
0.21
0.2
0.19
0.2
0.22
0.23
0.16
0.15
0.24
0.19
0.24
0.23
0.23
0.18
0.19
0.22
0.16
0.2
0.21
0.18
0.18
0.23
0.23
0.15
0.18
0.23
0.24
0.18
0.189999
0.189246
0.201667
0.120198
0.123136
0.106102
0.0961045
0.0894622
0.0644686
0.0584771
0.0872371
0.0834342
0.0696525
0.0708457
0.0750561
0.0471296
0.0615205
0.0625367
0.0488318
0.0474828
0.0596713
0.0389103
0.042877
0.0511149
0.0439349
0.0439999
0.0310693
0.0336193
0.0409305
0.0252499
0.0343766
0.026938
0.0213727
0.0166443
0.00885392
)
;

boundaryField
{
    inlet
    {
        type            fixedValue;
        value           uniform 0;
    }
    outlet
    {
        type            zeroGradient;
    }
    walls
    {
        type            zeroGradient;
    }
}


// ************************************************************************* //
