/*--------------------------------*- C++ -*----------------------------------*\
| =========                 |                                                 |
| \\      /  F ield         | foam-extend: Open Source CFD                    |
|  \\    /   O peration     | Version:     5.0                                |
|   \\  /    A nd           | Web:         http://www.foam-extend.org         |
|    \\/     M anipulation  |                                                 |
\*---------------------------------------------------------------------------*/
FoamFile
{
    version     2.0;
    format      ascii;
    class       volScalarField;
    location    "4000";
    object      p;
}
// * * * * * * * * * * * * * * * * * * * * * * * * * * * * * * * * * * * * * //

dimensions      [1 -1 -2 0 0 0 0];

internalField   nonuniform List<scalar> 
1000
(
0.101067
0.103151
0.105208
0.107248
0.109277
0.111297
0.113312
0.115323
0.117331
0.119337
0.121341
0.123345
0.125347
0.127349
0.12935
0.131351
0.133351
0.135352
0.137352
0.139352
0.141353
0.143353
0.145353
0.147353
0.149353
0.151353
0.153353
0.155353
0.157353
0.159353
0.161353
0.163353
0.165353
0.167353
0.169353
0.171353
0.173353
0.175353
0.177353
0.179353
0.181353
0.183353
0.185353
0.187353
0.189353
0.191353
0.193353
0.195354
0.197354
0.199354
0.201354
0.203354
0.205355
0.207355
0.209356
0.211357
0.213358
0.21536
0.217362
0.219366
0.22137
0.223375
0.225383
0.227393
0.229405
0.231422
0.233447
0.23549
0.237586
0.239816
0.242268
0.245124
0.247982
0.250717
0.253313
0.255803
0.258202
0.260535
0.262806
0.265025
0.267193
0.26931
0.271382
0.273413
0.275394
0.277331
0.279222
0.281064
0.282857
0.284602
0.286296
0.287938
0.289524
0.291056
0.292535
0.293953
0.295314
0.296602
0.297824
0.298954
0.101038
0.1031
0.105147
0.107181
0.109206
0.111224
0.113238
0.115248
0.117255
0.11926
0.121264
0.123267
0.125269
0.127271
0.129272
0.131272
0.133273
0.135274
0.137274
0.139274
0.141274
0.143274
0.145274
0.147275
0.149275
0.151275
0.153275
0.155275
0.157275
0.159275
0.161275
0.163275
0.165275
0.167275
0.169275
0.171275
0.173275
0.175275
0.177275
0.179275
0.181275
0.183275
0.185275
0.187275
0.189275
0.191275
0.193275
0.195275
0.197275
0.199275
0.201275
0.203276
0.205276
0.207277
0.209277
0.211278
0.213279
0.215281
0.217283
0.219286
0.22129
0.223295
0.225302
0.227311
0.229322
0.231336
0.233351
0.235358
0.237385
0.239747
0.242477
0.245293
0.248055
0.25073
0.253298
0.255785
0.258185
0.260515
0.262788
0.265006
0.267174
0.269291
0.271369
0.273394
0.275375
0.277313
0.279207
0.28105
0.28284
0.284583
0.286277
0.287918
0.28951
0.291048
0.292524
0.293938
0.295296
0.296585
0.297815
0.298942
0.101023
0.103064
0.105097
0.107123
0.109142
0.111157
0.113167
0.115175
0.117181
0.119185
0.121188
0.12319
0.125192
0.127193
0.129194
0.131194
0.133195
0.135195
0.137196
0.139196
0.141196
0.143196
0.145196
0.147196
0.149196
0.151196
0.153196
0.155196
0.157196
0.159196
0.161196
0.163196
0.165196
0.167196
0.169196
0.171196
0.173196
0.175196
0.177196
0.179196
0.181196
0.183196
0.185196
0.187196
0.189196
0.191196
0.193196
0.195196
0.197197
0.199197
0.201197
0.203197
0.205197
0.207198
0.209198
0.211199
0.2132
0.215201
0.217203
0.219205
0.221209
0.223213
0.225219
0.227227
0.229237
0.231249
0.233263
0.235277
0.237314
0.239638
0.242467
0.245364
0.24812
0.250768
0.253306
0.25577
0.258166
0.260495
0.26277
0.264986
0.267158
0.269277
0.271355
0.27338
0.275357
0.277294
0.279183
0.281029
0.282823
0.284565
0.286258
0.287904
0.289496
0.291034
0.292513
0.293929
0.295279
0.296571
0.297802
0.298932
0.101013
0.103036
0.105056
0.107071
0.109083
0.111092
0.113099
0.115104
0.117108
0.11911
0.121112
0.123114
0.125115
0.127116
0.129116
0.131117
0.133117
0.135117
0.137117
0.139117
0.141117
0.143118
0.145118
0.147118
0.149118
0.151118
0.153118
0.155118
0.157118
0.159118
0.161118
0.163118
0.165118
0.167118
0.169118
0.171118
0.173118
0.175118
0.177118
0.179118
0.181118
0.183118
0.185118
0.187118
0.189118
0.191118
0.193118
0.195118
0.197118
0.199118
0.201118
0.203118
0.205118
0.207119
0.209119
0.211119
0.21312
0.215121
0.217122
0.219124
0.221126
0.22313
0.225134
0.227141
0.22915
0.231161
0.233175
0.235185
0.237213
0.239632
0.242537
0.245426
0.248154
0.250789
0.253317
0.255767
0.258157
0.260484
0.262758
0.264975
0.267146
0.269265
0.271339
0.273365
0.275339
0.277276
0.279163
0.281007
0.282801
0.284543
0.286238
0.287883
0.289478
0.291019
0.292495
0.29391
0.295265
0.296562
0.297784
0.298924
0.101004
0.103012
0.105018
0.107023
0.109027
0.111031
0.113033
0.115035
0.117036
0.119037
0.121037
0.123038
0.125038
0.127039
0.129039
0.131039
0.133039
0.135039
0.137039
0.139039
0.141039
0.143039
0.145039
0.147039
0.149039
0.151039
0.153039
0.155039
0.157039
0.159039
0.161039
0.163039
0.165039
0.167039
0.169039
0.171039
0.173039
0.175039
0.177039
0.179039
0.181039
0.183039
0.185039
0.187039
0.189039
0.191039
0.193039
0.195039
0.197039
0.199039
0.201039
0.203039
0.20504
0.20704
0.20904
0.21104
0.21304
0.215041
0.217041
0.219042
0.221043
0.223045
0.225048
0.227053
0.22906
0.231071
0.233089
0.235118
0.237183
0.239586
0.242542
0.245449
0.248178
0.250796
0.253323
0.255763
0.258146
0.260476
0.262742
0.264965
0.267133
0.269248
0.271318
0.273345
0.275321
0.277257
0.279146
0.28099
0.282782
0.284525
0.28622
0.287866
0.289461
0.290998
0.292473
0.293889
0.295251
0.296556
0.297779
0.29892
0.100996
0.102988
0.104982
0.106977
0.108973
0.110969
0.112967
0.114965
0.116964
0.118963
0.120963
0.122962
0.124962
0.126962
0.128961
0.130961
0.132961
0.134961
0.136961
0.138961
0.140961
0.142961
0.144961
0.146961
0.148961
0.150961
0.152961
0.154961
0.156961
0.158961
0.160961
0.162961
0.164961
0.166961
0.168961
0.170961
0.172961
0.174961
0.176961
0.178961
0.180961
0.182961
0.184961
0.186961
0.188961
0.190961
0.192961
0.194961
0.196961
0.198961
0.200961
0.202961
0.204961
0.206961
0.20896
0.21096
0.21296
0.21496
0.21696
0.218959
0.220959
0.222959
0.22496
0.226961
0.228965
0.230974
0.232992
0.235031
0.237139
0.239611
0.242581
0.245484
0.248217
0.250817
0.253329
0.255766
0.25814
0.26046
0.262726
0.264945
0.267111
0.269227
0.271297
0.27332
0.275299
0.277233
0.279122
0.280967
0.282762
0.284504
0.286196
0.287839
0.289436
0.290974
0.292455
0.293872
0.295237
0.296545
0.297775
0.298919
0.100987
0.102964
0.104944
0.106929
0.108917
0.110908
0.112901
0.114896
0.116892
0.11889
0.120888
0.122886
0.124885
0.126884
0.128884
0.130883
0.132883
0.134883
0.136883
0.138883
0.140883
0.142882
0.144882
0.146882
0.148882
0.150882
0.152882
0.154882
0.156882
0.158882
0.160882
0.162882
0.164882
0.166882
0.168882
0.170882
0.172882
0.174882
0.176882
0.178882
0.180882
0.182882
0.184882
0.186882
0.188882
0.190882
0.192882
0.194882
0.196882
0.198882
0.200882
0.202882
0.204882
0.206881
0.208881
0.210881
0.21288
0.214879
0.216878
0.218877
0.220875
0.222873
0.22487
0.226868
0.228867
0.230868
0.232875
0.234892
0.23708
0.239801
0.242742
0.245549
0.248246
0.250836
0.253337
0.255762
0.258129
0.260447
0.262708
0.264921
0.267086
0.269204
0.271278
0.273301
0.275281
0.277216
0.279103
0.280941
0.282735
0.284478
0.286174
0.287817
0.289412
0.290955
0.292433
0.293856
0.29523
0.29653
0.297761
0.298899
0.100977
0.102936
0.104903
0.106877
0.108858
0.110843
0.112833
0.114825
0.116819
0.118815
0.120812
0.12281
0.124808
0.126807
0.128806
0.130806
0.132805
0.134805
0.136805
0.138804
0.140804
0.142804
0.144804
0.146804
0.148804
0.150804
0.152804
0.154804
0.156804
0.158804
0.160804
0.162804
0.164804
0.166804
0.168804
0.170804
0.172804
0.174804
0.176804
0.178804
0.180804
0.182804
0.184804
0.186804
0.188804
0.190804
0.192804
0.194804
0.196804
0.198803
0.200803
0.202803
0.204803
0.206802
0.208802
0.210801
0.2128
0.214799
0.216797
0.218795
0.220791
0.222787
0.224781
0.226774
0.228765
0.230756
0.232752
0.234774
0.237087
0.239955
0.242856
0.245623
0.248283
0.25085
0.253331
0.255757
0.258116
0.260427
0.262687
0.264902
0.267071
0.269184
0.27126
0.273284
0.275261
0.277197
0.279081
0.280917
0.282706
0.284451
0.286151
0.2878
0.289394
0.290933
0.292417
0.293842
0.295214
0.296515
0.297741
0.298891
0.100962
0.1029
0.104854
0.106819
0.108794
0.110776
0.112762
0.114752
0.116745
0.11874
0.120736
0.122733
0.124731
0.126729
0.128728
0.130728
0.132727
0.134727
0.136726
0.138726
0.140726
0.142726
0.144726
0.146726
0.148725
0.150725
0.152725
0.154725
0.156725
0.158725
0.160725
0.162725
0.164725
0.166725
0.168725
0.170725
0.172725
0.174725
0.176725
0.178725
0.180725
0.182725
0.184725
0.186725
0.188725
0.190725
0.192725
0.194725
0.196725
0.198725
0.200725
0.202724
0.204724
0.206724
0.208723
0.210722
0.212721
0.214719
0.216717
0.218713
0.220709
0.222702
0.224693
0.226681
0.228663
0.23064
0.232618
0.234667
0.237167
0.240088
0.242946
0.245675
0.248304
0.25085
0.253326
0.255748
0.258111
0.260415
0.262673
0.264888
0.267052
0.269167
0.271239
0.273261
0.275241
0.277176
0.279061
0.280899
0.282687
0.284431
0.286131
0.287779
0.289373
0.290917
0.292407
0.293835
0.295195
0.296494
0.297725
0.298873
0.100933
0.102849
0.104792
0.106752
0.108723
0.110703
0.112688
0.114677
0.116669
0.118663
0.120659
0.122655
0.124653
0.126651
0.12865
0.130649
0.132649
0.134648
0.136648
0.138648
0.140647
0.142647
0.144647
0.146647
0.148647
0.150647
0.152647
0.154647
0.156647
0.158647
0.160647
0.162647
0.164647
0.166647
0.168647
0.170647
0.172647
0.174647
0.176647
0.178647
0.180647
0.182647
0.184647
0.186647
0.188647
0.190647
0.192647
0.194647
0.196646
0.198646
0.200646
0.202646
0.204645
0.206645
0.208644
0.210643
0.212642
0.21464
0.216637
0.218633
0.220628
0.22262
0.224609
0.226593
0.228566
0.230522
0.232454
0.234599
0.237325
0.240206
0.243006
0.245703
0.248311
0.250839
0.253313
0.255742
0.258105
0.260407
0.262665
0.264876
0.267032
0.269151
0.271223
0.273243
0.275223
0.277159
0.27904
0.28088
0.282675
0.284419
0.286117
0.28776
0.289358
0.290906
0.29239
0.293824
0.295188
0.296486
0.297712
0.298851
)
;

boundaryField
{
    inlet
    {
        type            fluxPressure;
        gradient        nonuniform List<scalar> 10(0.01 0.01 0.01 0.01 0.01 0.01 0.01 0.01 0.01 0.01);
        value           nonuniform List<scalar> 10(0.299454 0.299442 0.299432 0.299424 0.29942 0.299419 0.299399 0.299391 0.299373 0.299351);
    }
    outlet
    {
        type            fixedValue;
        value           uniform 0.1;
    }
    walls
    {
        type            fluxPressure;
        gradient        uniform 0;
        value           nonuniform List<scalar> 
2200
(
0.101067
0.103151
0.105208
0.107248
0.109277
0.111297
0.113312
0.115323
0.117331
0.119337
0.121341
0.123345
0.125347
0.127349
0.12935
0.131351
0.133351
0.135352
0.137352
0.139352
0.141353
0.143353
0.145353
0.147353
0.149353
0.151353
0.153353
0.155353
0.157353
0.159353
0.161353
0.163353
0.165353
0.167353
0.169353
0.171353
0.173353
0.175353
0.177353
0.179353
0.181353
0.183353
0.185353
0.187353
0.189353
0.191353
0.193353
0.195354
0.197354
0.199354
0.201354
0.203354
0.205355
0.207355
0.209356
0.211357
0.213358
0.21536
0.217362
0.219366
0.22137
0.223375
0.225383
0.227393
0.229405
0.231422
0.233447
0.23549
0.237586
0.239816
0.242268
0.245124
0.247982
0.250717
0.253313
0.255803
0.258202
0.260535
0.262806
0.265025
0.267193
0.26931
0.271382
0.273413
0.275394
0.277331
0.279222
0.281064
0.282857
0.284602
0.286296
0.287938
0.289524
0.291056
0.292535
0.293953
0.295314
0.296602
0.297824
0.298954
0.101038
0.1031
0.105147
0.107181
0.109206
0.111224
0.113238
0.115248
0.117255
0.11926
0.121264
0.123267
0.125269
0.127271
0.129272
0.131272
0.133273
0.135274
0.137274
0.139274
0.141274
0.143274
0.145274
0.147275
0.149275
0.151275
0.153275
0.155275
0.157275
0.159275
0.161275
0.163275
0.165275
0.167275
0.169275
0.171275
0.173275
0.175275
0.177275
0.179275
0.181275
0.183275
0.185275
0.187275
0.189275
0.191275
0.193275
0.195275
0.197275
0.199275
0.201275
0.203276
0.205276
0.207277
0.209277
0.211278
0.213279
0.215281
0.217283
0.219286
0.22129
0.223295
0.225302
0.227311
0.229322
0.231336
0.233351
0.235358
0.237385
0.239747
0.242477
0.245293
0.248055
0.25073
0.253298
0.255785
0.258185
0.260515
0.262788
0.265006
0.267174
0.269291
0.271369
0.273394
0.275375
0.277313
0.279207
0.28105
0.28284
0.284583
0.286277
0.287918
0.28951
0.291048
0.292524
0.293938
0.295296
0.296585
0.297815
0.298942
0.101023
0.103064
0.105097
0.107123
0.109142
0.111157
0.113167
0.115175
0.117181
0.119185
0.121188
0.12319
0.125192
0.127193
0.129194
0.131194
0.133195
0.135195
0.137196
0.139196
0.141196
0.143196
0.145196
0.147196
0.149196
0.151196
0.153196
0.155196
0.157196
0.159196
0.161196
0.163196
0.165196
0.167196
0.169196
0.171196
0.173196
0.175196
0.177196
0.179196
0.181196
0.183196
0.185196
0.187196
0.189196
0.191196
0.193196
0.195196
0.197197
0.199197
0.201197
0.203197
0.205197
0.207198
0.209198
0.211199
0.2132
0.215201
0.217203
0.219205
0.221209
0.223213
0.225219
0.227227
0.229237
0.231249
0.233263
0.235277
0.237314
0.239638
0.242467
0.245364
0.24812
0.250768
0.253306
0.25577
0.258166
0.260495
0.26277
0.264986
0.267158
0.269277
0.271355
0.27338
0.275357
0.277294
0.279183
0.281029
0.282823
0.284565
0.286258
0.287904
0.289496
0.291034
0.292513
0.293929
0.295279
0.296571
0.297802
0.298932
0.101013
0.103036
0.105056
0.107071
0.109083
0.111092
0.113099
0.115104
0.117108
0.11911
0.121112
0.123114
0.125115
0.127116
0.129116
0.131117
0.133117
0.135117
0.137117
0.139117
0.141117
0.143118
0.145118
0.147118
0.149118
0.151118
0.153118
0.155118
0.157118
0.159118
0.161118
0.163118
0.165118
0.167118
0.169118
0.171118
0.173118
0.175118
0.177118
0.179118
0.181118
0.183118
0.185118
0.187118
0.189118
0.191118
0.193118
0.195118
0.197118
0.199118
0.201118
0.203118
0.205118
0.207119
0.209119
0.211119
0.21312
0.215121
0.217122
0.219124
0.221126
0.22313
0.225134
0.227141
0.22915
0.231161
0.233175
0.235185
0.237213
0.239632
0.242537
0.245426
0.248154
0.250789
0.253317
0.255767
0.258157
0.260484
0.262758
0.264975
0.267146
0.269265
0.271339
0.273365
0.275339
0.277276
0.279163
0.281007
0.282801
0.284543
0.286238
0.287883
0.289478
0.291019
0.292495
0.29391
0.295265
0.296562
0.297784
0.298924
0.101004
0.103012
0.105018
0.107023
0.109027
0.111031
0.113033
0.115035
0.117036
0.119037
0.121037
0.123038
0.125038
0.127039
0.129039
0.131039
0.133039
0.135039
0.137039
0.139039
0.141039
0.143039
0.145039
0.147039
0.149039
0.151039
0.153039
0.155039
0.157039
0.159039
0.161039
0.163039
0.165039
0.167039
0.169039
0.171039
0.173039
0.175039
0.177039
0.179039
0.181039
0.183039
0.185039
0.187039
0.189039
0.191039
0.193039
0.195039
0.197039
0.199039
0.201039
0.203039
0.20504
0.20704
0.20904
0.21104
0.21304
0.215041
0.217041
0.219042
0.221043
0.223045
0.225048
0.227053
0.22906
0.231071
0.233089
0.235118
0.237183
0.239586
0.242542
0.245449
0.248178
0.250796
0.253323
0.255763
0.258146
0.260476
0.262742
0.264965
0.267133
0.269248
0.271318
0.273345
0.275321
0.277257
0.279146
0.28099
0.282782
0.284525
0.28622
0.287866
0.289461
0.290998
0.292473
0.293889
0.295251
0.296556
0.297779
0.29892
0.100996
0.102988
0.104982
0.106977
0.108973
0.110969
0.112967
0.114965
0.116964
0.118963
0.120963
0.122962
0.124962
0.126962
0.128961
0.130961
0.132961
0.134961
0.136961
0.138961
0.140961
0.142961
0.144961
0.146961
0.148961
0.150961
0.152961
0.154961
0.156961
0.158961
0.160961
0.162961
0.164961
0.166961
0.168961
0.170961
0.172961
0.174961
0.176961
0.178961
0.180961
0.182961
0.184961
0.186961
0.188961
0.190961
0.192961
0.194961
0.196961
0.198961
0.200961
0.202961
0.204961
0.206961
0.20896
0.21096
0.21296
0.21496
0.21696
0.218959
0.220959
0.222959
0.22496
0.226961
0.228965
0.230974
0.232992
0.235031
0.237139
0.239611
0.242581
0.245484
0.248217
0.250817
0.253329
0.255766
0.25814
0.26046
0.262726
0.264945
0.267111
0.269227
0.271297
0.27332
0.275299
0.277233
0.279122
0.280967
0.282762
0.284504
0.286196
0.287839
0.289436
0.290974
0.292455
0.293872
0.295237
0.296545
0.297775
0.298919
0.100987
0.102964
0.104944
0.106929
0.108917
0.110908
0.112901
0.114896
0.116892
0.11889
0.120888
0.122886
0.124885
0.126884
0.128884
0.130883
0.132883
0.134883
0.136883
0.138883
0.140883
0.142882
0.144882
0.146882
0.148882
0.150882
0.152882
0.154882
0.156882
0.158882
0.160882
0.162882
0.164882
0.166882
0.168882
0.170882
0.172882
0.174882
0.176882
0.178882
0.180882
0.182882
0.184882
0.186882
0.188882
0.190882
0.192882
0.194882
0.196882
0.198882
0.200882
0.202882
0.204882
0.206881
0.208881
0.210881
0.21288
0.214879
0.216878
0.218877
0.220875
0.222873
0.22487
0.226868
0.228867
0.230868
0.232875
0.234892
0.23708
0.239801
0.242742
0.245549
0.248246
0.250836
0.253337
0.255762
0.258129
0.260447
0.262708
0.264921
0.267086
0.269204
0.271278
0.273301
0.275281
0.277216
0.279103
0.280941
0.282735
0.284478
0.286174
0.287817
0.289412
0.290955
0.292433
0.293856
0.29523
0.29653
0.297761
0.298899
0.100977
0.102936
0.104903
0.106877
0.108858
0.110843
0.112833
0.114825
0.116819
0.118815
0.120812
0.12281
0.124808
0.126807
0.128806
0.130806
0.132805
0.134805
0.136805
0.138804
0.140804
0.142804
0.144804
0.146804
0.148804
0.150804
0.152804
0.154804
0.156804
0.158804
0.160804
0.162804
0.164804
0.166804
0.168804
0.170804
0.172804
0.174804
0.176804
0.178804
0.180804
0.182804
0.184804
0.186804
0.188804
0.190804
0.192804
0.194804
0.196804
0.198803
0.200803
0.202803
0.204803
0.206802
0.208802
0.210801
0.2128
0.214799
0.216797
0.218795
0.220791
0.222787
0.224781
0.226774
0.228765
0.230756
0.232752
0.234774
0.237087
0.239955
0.242856
0.245623
0.248283
0.25085
0.253331
0.255757
0.258116
0.260427
0.262687
0.264902
0.267071
0.269184
0.27126
0.273284
0.275261
0.277197
0.279081
0.280917
0.282706
0.284451
0.286151
0.2878
0.289394
0.290933
0.292417
0.293842
0.295214
0.296515
0.297741
0.298891
0.100962
0.1029
0.104854
0.106819
0.108794
0.110776
0.112762
0.114752
0.116745
0.11874
0.120736
0.122733
0.124731
0.126729
0.128728
0.130728
0.132727
0.134727
0.136726
0.138726
0.140726
0.142726
0.144726
0.146726
0.148725
0.150725
0.152725
0.154725
0.156725
0.158725
0.160725
0.162725
0.164725
0.166725
0.168725
0.170725
0.172725
0.174725
0.176725
0.178725
0.180725
0.182725
0.184725
0.186725
0.188725
0.190725
0.192725
0.194725
0.196725
0.198725
0.200725
0.202724
0.204724
0.206724
0.208723
0.210722
0.212721
0.214719
0.216717
0.218713
0.220709
0.222702
0.224693
0.226681
0.228663
0.23064
0.232618
0.234667
0.237167
0.240088
0.242946
0.245675
0.248304
0.25085
0.253326
0.255748
0.258111
0.260415
0.262673
0.264888
0.267052
0.269167
0.271239
0.273261
0.275241
0.277176
0.279061
0.280899
0.282687
0.284431
0.286131
0.287779
0.289373
0.290917
0.292407
0.293835
0.295195
0.296494
0.297725
0.298873
0.100933
0.102849
0.104792
0.106752
0.108723
0.110703
0.112688
0.114677
0.116669
0.118663
0.120659
0.122655
0.124653
0.126651
0.12865
0.130649
0.132649
0.134648
0.136648
0.138648
0.140647
0.142647
0.144647
0.146647
0.148647
0.150647
0.152647
0.154647
0.156647
0.158647
0.160647
0.162647
0.164647
0.166647
0.168647
0.170647
0.172647
0.174647
0.176647
0.178647
0.180647
0.182647
0.184647
0.186647
0.188647
0.190647
0.192647
0.194647
0.196646
0.198646
0.200646
0.202646
0.204645
0.206645
0.208644
0.210643
0.212642
0.21464
0.216637
0.218633
0.220628
0.22262
0.224609
0.226593
0.228566
0.230522
0.232454
0.234599
0.237325
0.240206
0.243006
0.245703
0.248311
0.250839
0.253313
0.255742
0.258105
0.260407
0.262665
0.264876
0.267032
0.269151
0.271223
0.273243
0.275223
0.277159
0.27904
0.28088
0.282675
0.284419
0.286117
0.28776
0.289358
0.290906
0.29239
0.293824
0.295188
0.296486
0.297712
0.298851
0.101067
0.103151
0.105208
0.107248
0.109277
0.111297
0.113312
0.115323
0.117331
0.119337
0.121341
0.123345
0.125347
0.127349
0.12935
0.131351
0.133351
0.135352
0.137352
0.139352
0.141353
0.143353
0.145353
0.147353
0.149353
0.151353
0.153353
0.155353
0.157353
0.159353
0.161353
0.163353
0.165353
0.167353
0.169353
0.171353
0.173353
0.175353
0.177353
0.179353
0.181353
0.183353
0.185353
0.187353
0.189353
0.191353
0.193353
0.195354
0.197354
0.199354
0.201354
0.203354
0.205355
0.207355
0.209356
0.211357
0.213358
0.21536
0.217362
0.219366
0.22137
0.223375
0.225383
0.227393
0.229405
0.231422
0.233447
0.23549
0.237586
0.239816
0.242268
0.245124
0.247982
0.250717
0.253313
0.255803
0.258202
0.260535
0.262806
0.265025
0.267193
0.26931
0.271382
0.273413
0.275394
0.277331
0.279222
0.281064
0.282857
0.284602
0.286296
0.287938
0.289524
0.291056
0.292535
0.293953
0.295314
0.296602
0.297824
0.298954
0.101038
0.1031
0.105147
0.107181
0.109206
0.111224
0.113238
0.115248
0.117255
0.11926
0.121264
0.123267
0.125269
0.127271
0.129272
0.131272
0.133273
0.135274
0.137274
0.139274
0.141274
0.143274
0.145274
0.147275
0.149275
0.151275
0.153275
0.155275
0.157275
0.159275
0.161275
0.163275
0.165275
0.167275
0.169275
0.171275
0.173275
0.175275
0.177275
0.179275
0.181275
0.183275
0.185275
0.187275
0.189275
0.191275
0.193275
0.195275
0.197275
0.199275
0.201275
0.203276
0.205276
0.207277
0.209277
0.211278
0.213279
0.215281
0.217283
0.219286
0.22129
0.223295
0.225302
0.227311
0.229322
0.231336
0.233351
0.235358
0.237385
0.239747
0.242477
0.245293
0.248055
0.25073
0.253298
0.255785
0.258185
0.260515
0.262788
0.265006
0.267174
0.269291
0.271369
0.273394
0.275375
0.277313
0.279207
0.28105
0.28284
0.284583
0.286277
0.287918
0.28951
0.291048
0.292524
0.293938
0.295296
0.296585
0.297815
0.298942
0.101023
0.103064
0.105097
0.107123
0.109142
0.111157
0.113167
0.115175
0.117181
0.119185
0.121188
0.12319
0.125192
0.127193
0.129194
0.131194
0.133195
0.135195
0.137196
0.139196
0.141196
0.143196
0.145196
0.147196
0.149196
0.151196
0.153196
0.155196
0.157196
0.159196
0.161196
0.163196
0.165196
0.167196
0.169196
0.171196
0.173196
0.175196
0.177196
0.179196
0.181196
0.183196
0.185196
0.187196
0.189196
0.191196
0.193196
0.195196
0.197197
0.199197
0.201197
0.203197
0.205197
0.207198
0.209198
0.211199
0.2132
0.215201
0.217203
0.219205
0.221209
0.223213
0.225219
0.227227
0.229237
0.231249
0.233263
0.235277
0.237314
0.239638
0.242467
0.245364
0.24812
0.250768
0.253306
0.25577
0.258166
0.260495
0.26277
0.264986
0.267158
0.269277
0.271355
0.27338
0.275357
0.277294
0.279183
0.281029
0.282823
0.284565
0.286258
0.287904
0.289496
0.291034
0.292513
0.293929
0.295279
0.296571
0.297802
0.298932
0.101013
0.103036
0.105056
0.107071
0.109083
0.111092
0.113099
0.115104
0.117108
0.11911
0.121112
0.123114
0.125115
0.127116
0.129116
0.131117
0.133117
0.135117
0.137117
0.139117
0.141117
0.143118
0.145118
0.147118
0.149118
0.151118
0.153118
0.155118
0.157118
0.159118
0.161118
0.163118
0.165118
0.167118
0.169118
0.171118
0.173118
0.175118
0.177118
0.179118
0.181118
0.183118
0.185118
0.187118
0.189118
0.191118
0.193118
0.195118
0.197118
0.199118
0.201118
0.203118
0.205118
0.207119
0.209119
0.211119
0.21312
0.215121
0.217122
0.219124
0.221126
0.22313
0.225134
0.227141
0.22915
0.231161
0.233175
0.235185
0.237213
0.239632
0.242537
0.245426
0.248154
0.250789
0.253317
0.255767
0.258157
0.260484
0.262758
0.264975
0.267146
0.269265
0.271339
0.273365
0.275339
0.277276
0.279163
0.281007
0.282801
0.284543
0.286238
0.287883
0.289478
0.291019
0.292495
0.29391
0.295265
0.296562
0.297784
0.298924
0.101004
0.103012
0.105018
0.107023
0.109027
0.111031
0.113033
0.115035
0.117036
0.119037
0.121037
0.123038
0.125038
0.127039
0.129039
0.131039
0.133039
0.135039
0.137039
0.139039
0.141039
0.143039
0.145039
0.147039
0.149039
0.151039
0.153039
0.155039
0.157039
0.159039
0.161039
0.163039
0.165039
0.167039
0.169039
0.171039
0.173039
0.175039
0.177039
0.179039
0.181039
0.183039
0.185039
0.187039
0.189039
0.191039
0.193039
0.195039
0.197039
0.199039
0.201039
0.203039
0.20504
0.20704
0.20904
0.21104
0.21304
0.215041
0.217041
0.219042
0.221043
0.223045
0.225048
0.227053
0.22906
0.231071
0.233089
0.235118
0.237183
0.239586
0.242542
0.245449
0.248178
0.250796
0.253323
0.255763
0.258146
0.260476
0.262742
0.264965
0.267133
0.269248
0.271318
0.273345
0.275321
0.277257
0.279146
0.28099
0.282782
0.284525
0.28622
0.287866
0.289461
0.290998
0.292473
0.293889
0.295251
0.296556
0.297779
0.29892
0.100996
0.102988
0.104982
0.106977
0.108973
0.110969
0.112967
0.114965
0.116964
0.118963
0.120963
0.122962
0.124962
0.126962
0.128961
0.130961
0.132961
0.134961
0.136961
0.138961
0.140961
0.142961
0.144961
0.146961
0.148961
0.150961
0.152961
0.154961
0.156961
0.158961
0.160961
0.162961
0.164961
0.166961
0.168961
0.170961
0.172961
0.174961
0.176961
0.178961
0.180961
0.182961
0.184961
0.186961
0.188961
0.190961
0.192961
0.194961
0.196961
0.198961
0.200961
0.202961
0.204961
0.206961
0.20896
0.21096
0.21296
0.21496
0.21696
0.218959
0.220959
0.222959
0.22496
0.226961
0.228965
0.230974
0.232992
0.235031
0.237139
0.239611
0.242581
0.245484
0.248217
0.250817
0.253329
0.255766
0.25814
0.26046
0.262726
0.264945
0.267111
0.269227
0.271297
0.27332
0.275299
0.277233
0.279122
0.280967
0.282762
0.284504
0.286196
0.287839
0.289436
0.290974
0.292455
0.293872
0.295237
0.296545
0.297775
0.298919
0.100987
0.102964
0.104944
0.106929
0.108917
0.110908
0.112901
0.114896
0.116892
0.11889
0.120888
0.122886
0.124885
0.126884
0.128884
0.130883
0.132883
0.134883
0.136883
0.138883
0.140883
0.142882
0.144882
0.146882
0.148882
0.150882
0.152882
0.154882
0.156882
0.158882
0.160882
0.162882
0.164882
0.166882
0.168882
0.170882
0.172882
0.174882
0.176882
0.178882
0.180882
0.182882
0.184882
0.186882
0.188882
0.190882
0.192882
0.194882
0.196882
0.198882
0.200882
0.202882
0.204882
0.206881
0.208881
0.210881
0.21288
0.214879
0.216878
0.218877
0.220875
0.222873
0.22487
0.226868
0.228867
0.230868
0.232875
0.234892
0.23708
0.239801
0.242742
0.245549
0.248246
0.250836
0.253337
0.255762
0.258129
0.260447
0.262708
0.264921
0.267086
0.269204
0.271278
0.273301
0.275281
0.277216
0.279103
0.280941
0.282735
0.284478
0.286174
0.287817
0.289412
0.290955
0.292433
0.293856
0.29523
0.29653
0.297761
0.298899
0.100977
0.102936
0.104903
0.106877
0.108858
0.110843
0.112833
0.114825
0.116819
0.118815
0.120812
0.12281
0.124808
0.126807
0.128806
0.130806
0.132805
0.134805
0.136805
0.138804
0.140804
0.142804
0.144804
0.146804
0.148804
0.150804
0.152804
0.154804
0.156804
0.158804
0.160804
0.162804
0.164804
0.166804
0.168804
0.170804
0.172804
0.174804
0.176804
0.178804
0.180804
0.182804
0.184804
0.186804
0.188804
0.190804
0.192804
0.194804
0.196804
0.198803
0.200803
0.202803
0.204803
0.206802
0.208802
0.210801
0.2128
0.214799
0.216797
0.218795
0.220791
0.222787
0.224781
0.226774
0.228765
0.230756
0.232752
0.234774
0.237087
0.239955
0.242856
0.245623
0.248283
0.25085
0.253331
0.255757
0.258116
0.260427
0.262687
0.264902
0.267071
0.269184
0.27126
0.273284
0.275261
0.277197
0.279081
0.280917
0.282706
0.284451
0.286151
0.2878
0.289394
0.290933
0.292417
0.293842
0.295214
0.296515
0.297741
0.298891
0.100962
0.1029
0.104854
0.106819
0.108794
0.110776
0.112762
0.114752
0.116745
0.11874
0.120736
0.122733
0.124731
0.126729
0.128728
0.130728
0.132727
0.134727
0.136726
0.138726
0.140726
0.142726
0.144726
0.146726
0.148725
0.150725
0.152725
0.154725
0.156725
0.158725
0.160725
0.162725
0.164725
0.166725
0.168725
0.170725
0.172725
0.174725
0.176725
0.178725
0.180725
0.182725
0.184725
0.186725
0.188725
0.190725
0.192725
0.194725
0.196725
0.198725
0.200725
0.202724
0.204724
0.206724
0.208723
0.210722
0.212721
0.214719
0.216717
0.218713
0.220709
0.222702
0.224693
0.226681
0.228663
0.23064
0.232618
0.234667
0.237167
0.240088
0.242946
0.245675
0.248304
0.25085
0.253326
0.255748
0.258111
0.260415
0.262673
0.264888
0.267052
0.269167
0.271239
0.273261
0.275241
0.277176
0.279061
0.280899
0.282687
0.284431
0.286131
0.287779
0.289373
0.290917
0.292407
0.293835
0.295195
0.296494
0.297725
0.298873
0.100933
0.102849
0.104792
0.106752
0.108723
0.110703
0.112688
0.114677
0.116669
0.118663
0.120659
0.122655
0.124653
0.126651
0.12865
0.130649
0.132649
0.134648
0.136648
0.138648
0.140647
0.142647
0.144647
0.146647
0.148647
0.150647
0.152647
0.154647
0.156647
0.158647
0.160647
0.162647
0.164647
0.166647
0.168647
0.170647
0.172647
0.174647
0.176647
0.178647
0.180647
0.182647
0.184647
0.186647
0.188647
0.190647
0.192647
0.194647
0.196646
0.198646
0.200646
0.202646
0.204645
0.206645
0.208644
0.210643
0.212642
0.21464
0.216637
0.218633
0.220628
0.22262
0.224609
0.226593
0.228566
0.230522
0.232454
0.234599
0.237325
0.240206
0.243006
0.245703
0.248311
0.250839
0.253313
0.255742
0.258105
0.260407
0.262665
0.264876
0.267032
0.269151
0.271223
0.273243
0.275223
0.277159
0.27904
0.28088
0.282675
0.284419
0.286117
0.28776
0.289358
0.290906
0.29239
0.293824
0.295188
0.296486
0.297712
0.298851
0.101067
0.103151
0.105208
0.107248
0.109277
0.111297
0.113312
0.115323
0.117331
0.119337
0.121341
0.123345
0.125347
0.127349
0.12935
0.131351
0.133351
0.135352
0.137352
0.139352
0.141353
0.143353
0.145353
0.147353
0.149353
0.151353
0.153353
0.155353
0.157353
0.159353
0.161353
0.163353
0.165353
0.167353
0.169353
0.171353
0.173353
0.175353
0.177353
0.179353
0.181353
0.183353
0.185353
0.187353
0.189353
0.191353
0.193353
0.195354
0.197354
0.199354
0.201354
0.203354
0.205355
0.207355
0.209356
0.211357
0.213358
0.21536
0.217362
0.219366
0.22137
0.223375
0.225383
0.227393
0.229405
0.231422
0.233447
0.23549
0.237586
0.239816
0.242268
0.245124
0.247982
0.250717
0.253313
0.255803
0.258202
0.260535
0.262806
0.265025
0.267193
0.26931
0.271382
0.273413
0.275394
0.277331
0.279222
0.281064
0.282857
0.284602
0.286296
0.287938
0.289524
0.291056
0.292535
0.293953
0.295314
0.296602
0.297824
0.298954
0.100933
0.102849
0.104792
0.106752
0.108723
0.110703
0.112688
0.114677
0.116669
0.118663
0.120659
0.122655
0.124653
0.126651
0.12865
0.130649
0.132649
0.134648
0.136648
0.138648
0.140647
0.142647
0.144647
0.146647
0.148647
0.150647
0.152647
0.154647
0.156647
0.158647
0.160647
0.162647
0.164647
0.166647
0.168647
0.170647
0.172647
0.174647
0.176647
0.178647
0.180647
0.182647
0.184647
0.186647
0.188647
0.190647
0.192647
0.194647
0.196646
0.198646
0.200646
0.202646
0.204645
0.206645
0.208644
0.210643
0.212642
0.21464
0.216637
0.218633
0.220628
0.22262
0.224609
0.226593
0.228566
0.230522
0.232454
0.234599
0.237325
0.240206
0.243006
0.245703
0.248311
0.250839
0.253313
0.255742
0.258105
0.260407
0.262665
0.264876
0.267032
0.269151
0.271223
0.273243
0.275223
0.277159
0.27904
0.28088
0.282675
0.284419
0.286117
0.28776
0.289358
0.290906
0.29239
0.293824
0.295188
0.296486
0.297712