/*--------------------------------*- C++ -*----------------------------------*\
| =========                 |                                                 |
| \\      /  F ield         | foam-extend: Open Source CFD                    |
|  \\    /   O peration     | Version:     5.0                                |
|   \\  /    A nd           | Web:         http://www.foam-extend.org         |
|    \\/     M anipulation  |                                                 |
\*---------------------------------------------------------------------------*/
FoamFile
{
    version     2.0;
    format      ascii;
    class       surfaceScalarField;
    location    "4000";
    object      phi;
}
// * * * * * * * * * * * * * * * * * * * * * * * * * * * * * * * * * * * * * //

dimensions      [0 3 -1 0 0 0 0];

internalField   nonuniform List<scalar> 
1890
(
-1.0421e-05
-2.47692e-07
-1.02846e-05
-1.36398e-07
-1.01998e-05
-8.48613e-08
-1.0143e-05
-5.67892e-08
-1.01034e-05
-3.95807e-08
-1.00752e-05
-2.82063e-08
-1.00549e-05
-2.03457e-08
-1.00401e-05
-1.47739e-08
-1.00293e-05
-1.07677e-08
-1.00215e-05
-7.86403e-09
-1.00157e-05
-5.75001e-09
-1.00115e-05
-4.20702e-09
-1.00084e-05
-3.07921e-09
-1.00062e-05
-2.25421e-09
-1.00045e-05
-1.65044e-09
-1.00033e-05
-1.20847e-09
-1.00024e-05
-8.8488e-10
-1.00018e-05
-6.47951e-10
-1.00013e-05
-4.74463e-10
-1.0001e-05
-3.47424e-10
-1.00007e-05
-2.54394e-10
-1.00005e-05
-1.86265e-10
-1.00004e-05
-1.36369e-10
-1.00003e-05
-9.98198e-11
-1.00002e-05
-7.30412e-11
-1.00002e-05
-5.3412e-11
-1.00001e-05
-3.90107e-11
-1.00001e-05
-2.8428e-11
-1.00001e-05
-2.06281e-11
-1e-05
-1.48479e-11
-1e-05
-1.05217e-11
-1e-05
-7.22609e-12
-1e-05
-4.63878e-12
-1e-05
-2.50661e-12
-1e-05
-6.21028e-13
-1e-05
1.20239e-12
-1e-05
3.14196e-12
-1e-05
5.38731e-12
-1e-05
8.15791e-12
-1.00001e-05
1.17244e-11
-1.00001e-05
1.64351e-11
-1.00001e-05
2.27495e-11
-1.00001e-05
3.12828e-11
-1.00002e-05
4.28654e-11
-1.00002e-05
5.86218e-11
-1.00003e-05
8.00775e-11
-1.00004e-05
1.09302e-10
-1.00006e-05
1.491e-10
-1.00008e-05
2.03266e-10
-1.0001e-05
2.76914e-10
-1.00014e-05
3.76915e-10
-1.00019e-05
5.12444e-10
-1.00026e-05
6.95657e-10
-1.00036e-05
9.42494e-10
-1.00048e-05
1.27356e-09
-1.00066e-05
1.71499e-09
-1.00089e-05
2.29906e-09
-1.00119e-05
3.06428e-09
-1.0016e-05
4.0547e-09
-1.00213e-05
5.31867e-09
-1.00282e-05
6.91019e-09
-1.00371e-05
8.90517e-09
-1.00486e-05
1.14752e-08
-1.00637e-05
1.51618e-08
-1.00856e-05
2.18451e-08
-1.01238e-05
3.82203e-08
-1.02128e-05
8.89832e-08
-1.04809e-05
2.68057e-07
-1.11094e-05
6.28514e-07
-1.11669e-05
5.75756e-08
-1.02985e-05
-8.68409e-07
-9.57971e-06
-7.18824e-07
-9.20331e-06
-3.764e-07
-9.05241e-06
-1.509e-07
-9.01321e-06
-3.92007e-08
-8.99027e-06
-2.29325e-08
-8.9732e-06
-1.70728e-08
-8.97443e-06
1.23158e-09
-8.97243e-06
-2.0024e-09
-8.98186e-06
9.42727e-09
-8.99876e-06
1.6901e-08
-9.01734e-06
1.85769e-08
-9.01741e-06
7.80834e-11
-9.04732e-06
2.99041e-08
-9.08515e-06
3.78346e-08
-9.12084e-06
3.56861e-08
-9.14904e-06
2.82061e-08
-9.17667e-06
2.76224e-08
-9.22436e-06
4.7689e-08
-9.28396e-06
5.96034e-08
-9.35393e-06
6.997e-08
-9.43817e-06
8.42456e-08
-9.49182e-06
5.36514e-08
-9.5111e-06
1.92773e-08
-9.56123e-06
5.01264e-08
-9.63839e-06
7.71622e-08
-9.74467e-06
1.06279e-07
-9.85491e-06
1.10241e-07
-9.90808e-06
5.31729e-08
9.19178e-08
-1.03098e-05
-3.17264e-07
-1.02331e-05
-2.13038e-07
-1.01717e-05
-1.46258e-07
-1.01258e-05
-1.02715e-07
-1.0092e-05
-7.33273e-08
-1.00673e-05
-5.28986e-08
-1.00493e-05
-3.84027e-08
-1.00361e-05
-2.79823e-08
-1.00264e-05
-2.04328e-08
-1.00193e-05
-1.49384e-08
-1.00142e-05
-1.09289e-08
-1.00104e-05
-7.9988e-09
-1.00076e-05
-5.85556e-09
-1.00056e-05
-4.28713e-09
-1.00041e-05
-3.13904e-09
-1.0003e-05
-2.29849e-09
-1.00022e-05
-1.68306e-09
-1.00016e-05
-1.23242e-09
-1.00012e-05
-9.02438e-10
-1.00009e-05
-6.60802e-10
-1.00006e-05
-4.83854e-10
-1.00005e-05
-3.5427e-10
-1.00003e-05
-2.59365e-10
-1.00003e-05
-1.8985e-10
-1.00002e-05
-1.38918e-10
-1.00001e-05
-1.01585e-10
-1.00001e-05
-7.41962e-11
-1.00001e-05
-5.40706e-11
-1.00001e-05
-3.92382e-11
-1e-05
-2.82471e-11
-1e-05
-2.00214e-11
-1e-05
-1.3756e-11
-1e-05
-8.83748e-12
-1e-05
-4.78454e-12
-1e-05
-1.20043e-12
-1e-05
2.26564e-12
-1e-05
5.95282e-12
-1e-05
1.02218e-11
-1e-05
1.54902e-11
-1e-05
2.22729e-11
-1.00001e-05
3.12325e-11
-1.00001e-05
4.32438e-11
-1.00001e-05
5.9478e-11
-1.00001e-05
8.15161e-11
-1.00002e-05
1.11501e-10
-1.00003e-05
1.5234e-10
-1.00004e-05
2.07982e-10
-1.00005e-05
2.83782e-10
-1.00007e-05
3.86994e-10
-1.00009e-05
5.27419e-10
-1.00013e-05
7.18246e-10
-1.00017e-05
9.77148e-10
-1.00024e-05
1.32764e-09
-1.00032e-05
1.80072e-09
-1.00044e-05
2.43674e-09
-1.0006e-05
3.28735e-09
-1.00081e-05
4.41699e-09
-1.00109e-05
5.90345e-09
-1.00147e-05
7.83598e-09
-1.00197e-05
1.03099e-08
-1.00262e-05
1.34171e-08
-1.00345e-05
1.72355e-08
-1.00449e-05
2.18339e-08
-1.00571e-05
2.7327e-08
-1.00692e-05
3.39986e-08
-1.0073e-05
4.2053e-08
-1.00312e-05
4.71821e-08
-9.77342e-06
1.02338e-08
-9.09469e-06
-5.02231e-08
-9.11201e-06
7.49006e-08
-9.77773e-06
-2.02693e-07
-1.00995e-05
-3.97044e-07
-1.01228e-05
-3.53071e-07
-1.00292e-05
-2.44519e-07
-9.94532e-06
-1.23093e-07
-9.94223e-06
-2.60273e-08
-9.959e-06
-2.9695e-10
-9.97102e-06
1.32488e-08
-9.97909e-06
6.07143e-09
-9.98969e-06
2.00257e-08
-9.97987e-06
7.08043e-09
-9.96753e-06
6.23648e-09
-9.97149e-06
4.04067e-09
-9.95079e-06
9.19668e-09
-9.95014e-06
3.71934e-08
-9.96096e-06
4.65021e-08
-1.00099e-05
7.71929e-08
-1.00498e-05
6.74281e-08
-1.00506e-05
4.84953e-08
-1.00551e-05
6.41433e-08
-1.00595e-05
7.43408e-08
-1.00264e-05
5.12138e-08
-1.0027e-05
5.42503e-08
-1.0069e-05
6.12005e-08
-1.00613e-05
4.24714e-08
-1.00193e-05
3.51198e-08
-1.00174e-05
1.04376e-07
-9.99166e-06
8.45437e-08
-1.00268e-05
8.8347e-08
6.50886e-08
-1.02055e-05
-3.40791e-07
-1.01663e-05
-2.52231e-07
-1.01282e-05
-1.84419e-07
-1.00964e-05
-1.34484e-07
-1.00716e-05
-9.81152e-08
-1.00529e-05
-7.16582e-08
-1.00389e-05
-5.23843e-08
-1.00285e-05
-3.83196e-08
-1.00209e-05
-2.8043e-08
-1.00153e-05
-2.05276e-08
-1.00112e-05
-1.50286e-08
-1.00082e-05
-1.10037e-08
-1.0006e-05
-8.05711e-09
-1.00044e-05
-5.89974e-09
-1.00032e-05
-4.3201e-09
-1.00024e-05
-3.16342e-09
-1.00017e-05
-2.31645e-09
-1.00013e-05
-1.69624e-09
-1.00009e-05
-1.24208e-09
-1.00007e-05
-9.09504e-10
-1.00005e-05
-6.6596e-10
-1.00004e-05
-4.87605e-10
-1.00003e-05
-3.56981e-10
-1.00002e-05
-2.61302e-10
-1.00001e-05
-1.91202e-10
-1.00001e-05
-1.39818e-10
-1.00001e-05
-1.02122e-10
-1.00001e-05
-7.44218e-11
-1e-05
-5.40074e-11
-1e-05
-3.88802e-11
-1e-05
-2.75591e-11
-1e-05
-1.89361e-11
-1e-05
-1.2167e-11
-1e-05
-6.58904e-12
-1e-05
-1.65635e-12
-1e-05
3.11396e-12
-1e-05
8.18877e-12
-1e-05
1.40647e-11
-1e-05
2.13165e-11
-1e-05
3.06533e-11
-1e-05
4.29879e-11
-1.00001e-05
5.95253e-11
-1.00001e-05
8.18799e-11
-1.00001e-05
1.12232e-10
-1.00002e-05
1.53537e-10
-1.00002e-05
2.09813e-10
-1.00003e-05
2.86517e-10
-1.00004e-05
3.91066e-10
-1.00006e-05
5.33526e-10
-1.00008e-05
7.27534e-10
-1.0001e-05
9.91515e-10
-1.00014e-05
1.35028e-09
-1.00019e-05
1.83704e-09
-1.00026e-05
2.496e-09
-1.00036e-05
3.38534e-09
-1.00048e-05
4.58064e-09
-1.00066e-05
6.17809e-09
-1.0009e-05
8.29648e-09
-1.00122e-05
1.10758e-08
-1.00166e-05
1.46679e-08
-1.00224e-05
1.92127e-08
-1.00299e-05
2.47858e-08
-1.00394e-05
3.12979e-08
-1.00504e-05
3.83135e-08
-1.00612e-05
4.47694e-08
-1.00679e-05
4.88111e-08
-1.00706e-05
4.98581e-08
-1.01268e-05
6.64406e-08
-1.02951e-05
1.18025e-07
-9.94859e-06
-2.7156e-07
-9.72991e-06
-4.21377e-07
-9.77792e-06
-3.49031e-07
-9.89782e-06
-2.33174e-07
-9.96183e-06
-1.80508e-07
-9.95314e-06
-1.31778e-07
-9.91118e-06
-6.79929e-08
-9.87096e-06
-4.05169e-08
-9.82983e-06
-2.7878e-08
-9.81082e-06
-1.29353e-08
-9.77584e-06
-1.49556e-08
-9.76087e-06
-7.89099e-09
-9.74879e-06
-5.84163e-09
-9.76453e-06
1.97773e-08
-9.7765e-06
2.11729e-08
-9.77679e-06
3.74801e-08
-9.77555e-06
4.5259e-08
-9.75627e-06
5.792e-08
-9.76467e-06
7.58273e-08
-9.79665e-06
8.04733e-08
-9.82076e-06
8.82564e-08
-9.82605e-06
7.96309e-08
-9.86528e-06
9.0444e-08
-9.89352e-06
8.24915e-08
-9.90128e-06
6.8961e-08
-9.95557e-06
9.67545e-08
-1.00309e-05
1.1047e-07
-1.00088e-05
8.22605e-08
-9.97315e-06
4.88932e-08
-1.00092e-05
1.2436e-07
5.59276e-08
-1.0117e-05
-3.49662e-07
-1.00985e-05
-2.70675e-07
-1.00782e-05
-2.04701e-07
-1.006e-05
-1.52689e-07
-1.00452e-05
-1.12991e-07
-1.00336e-05
-8.32346e-08
-1.00248e-05
-6.11566e-08
-1.00183e-05
-4.4869e-08
-1.00134e-05
-3.28919e-08
-1.00098e-05
-2.41005e-08
-1.00072e-05
-1.76542e-08
-1.00053e-05
-1.29302e-08
-1.00039e-05
-9.46945e-09
-1.00028e-05
-6.93462e-09
-1.00021e-05
-5.07819e-09
-1.00015e-05
-3.71866e-09
-1.00011e-05
-2.72308e-09
-1.00008e-05
-1.99402e-09
-1.00006e-05
-1.46014e-09
-1.00004e-05
-1.06918e-09
-1.00003e-05
-7.82877e-10
-1.00002e-05
-5.7321e-10
-1.00002e-05
-4.19653e-10
-1.00001e-05
-3.07177e-10
-1.00001e-05
-2.24769e-10
-1.00001e-05
-1.64365e-10
-1.00001e-05
-1.2005e-10
-1e-05
-8.74877e-11
-1e-05
-6.34897e-11
-1e-05
-4.57069e-11
-1e-05
-3.23987e-11
-1e-05
-2.22621e-11
-1e-05
-1.43048e-11
-1e-05
-7.74783e-12
-1e-05
-1.9493e-12
-1e-05
3.65847e-12
-1e-05
9.62439e-12
-1e-05
1.65324e-11
-1e-05
2.50585e-11
-1e-05
3.60369e-11
-1e-05
5.05416e-11
-1e-05
6.99907e-11
-1.00001e-05
9.62856e-11
-1.00001e-05
1.31995e-10
-1.00001e-05
1.80605e-10
-1.00001e-05
2.46858e-10
-1.00002e-05
3.37207e-10
-1.00003e-05
4.60439e-10
-1.00004e-05
6.28509e-10
-1.00005e-05
8.57674e-10
-1.00007e-05
1.17e-09
-1.00009e-05
1.5954e-09
-1.00012e-05
2.17424e-09
-1.00017e-05
2.96088e-09
-1.00024e-05
4.02795e-09
-1.00032e-05
5.47175e-09
-1.00045e-05
7.4182e-09
-1.00062e-05
1.00286e-08
-1.00086e-05
1.35026e-08
-1.00121e-05
1.8073e-08
-1.00168e-05
2.39797e-08
-1.00234e-05
3.13969e-08
-1.00324e-05
4.02581e-08
-1.00439e-05
4.98592e-08
-1.00571e-05
5.79538e-08
-1.00669e-05
5.85632e-08
-1.0053e-05
3.59616e-08
-9.93266e-06
-5.38772e-08
-9.5746e-06
-2.40035e-07
-9.69791e-06
-1.48248e-07
-9.89507e-06
-2.24215e-07
-1.00218e-05
-2.22294e-07
-1.00541e-05
-2.00853e-07
-1.01071e-05
-1.27542e-07
-1.01215e-05
-1.17341e-07
-1.0117e-05
-7.25398e-08
-1.01203e-05
-3.72072e-08
-1.01038e-05
-4.44167e-08
-1.01123e-05
-4.38884e-09
-1.01052e-05
-2.20776e-08
-1.01081e-05
-4.95986e-09
-1.01341e-05
2.01477e-08
-1.01591e-05
4.47305e-08
-1.0181e-05
4.31555e-08
-1.0185e-05
4.14428e-08
-1.0189e-05
4.92419e-08
-1.01766e-05
4.55316e-08
-1.01473e-05
4.64994e-08
-1.01322e-05
6.54383e-08
-1.01088e-05
6.47915e-08
-1.01009e-05
7.18128e-08
-1.0083e-05
7.24609e-08
-1.00777e-05
7.72638e-08
-1.01159e-05
1.07078e-07
-1.01441e-05
1.25038e-07
-1.01615e-05
1.27863e-07
-1.01567e-05
7.73948e-08
-1.01385e-05
3.07485e-08
-1.00387e-05
2.45123e-08
1.72603e-08
-1.0038e-05
-3.52046e-07
-1.00325e-05
-2.76104e-07
-1.00262e-05
-2.11022e-07
-1.00203e-05
-1.58581e-07
-1.00154e-05
-1.17924e-07
-1.00115e-05
-8.71329e-08
-1.00085e-05
-6.41385e-08
-1.00063e-05
-4.71079e-08
-1.00046e-05
-3.4555e-08
-1.00034e-05
-2.53284e-08
-1.00025e-05
-1.85576e-08
-1.00018e-05
-1.35935e-08
-1.00013e-05
-9.95587e-09
-1.0001e-05
-7.29112e-09
-1.00007e-05
-5.33936e-09
-1.00005e-05
-3.90996e-09
-1.00004e-05
-2.86318e-09
-1.00003e-05
-2.09662e-09
-1.00002e-05
-1.53527e-09
-1.00002e-05
-1.12419e-09
-1.00001e-05
-8.2316e-10
-1.00001e-05
-6.02704e-10
-1.00001e-05
-4.41246e-10
-1e-05
-3.22982e-10
-1e-05
-2.36334e-10
-1e-05
-1.72821e-10
-1e-05
-1.26227e-10
-1e-05
-9.19892e-11
-1e-05
-6.67566e-11
-1e-05
-4.80592e-11
-1e-05
-3.40665e-11
-1e-05
-2.34086e-11
-1e-05
-1.50422e-11
-1e-05
-8.14807e-12
-1e-05
-2.05133e-12
-1e-05
3.84497e-12
-1e-05
1.01181e-11
-1e-05
1.73822e-11
-1e-05
2.63484e-11
-1e-05
3.78945e-11
-1e-05
5.31508e-11
-1e-05
7.36106e-11
-1e-05
1.01277e-10
-1e-05
1.38857e-10
-1e-05
1.90031e-10
-1.00001e-05
2.59807e-10
-1.00001e-05
3.55015e-10
-1.00001e-05
4.84972e-10
-1.00001e-05
6.62397e-10
-1.00002e-05
9.04649e-10
-1.00002e-05
1.23542e-09
-1.00003e-05
1.68705e-09
-1.00005e-05
2.30364e-09
-1.00006e-05
3.1453e-09
-1.00009e-05
4.29381e-09
-1.00013e-05
5.86018e-09
-1.00019e-05
7.99431e-09
-1.00027e-05
1.0897e-08
-1.00041e-05
1.48329e-08
-1.00061e-05
2.01418e-08
-1.00094e-05
2.72362e-08
-1.00146e-05
3.65638e-08
-1.00228e-05
4.84784e-08
-1.00358e-05
6.29114e-08
-1.00565e-05
7.86234e-08
-1.00895e-05
9.1526e-08
-1.01437e-05
9.02246e-08
-1.02367e-05
3.91206e-08
-1.03052e-05
-1.71617e-07
-1.00155e-05
-4.37883e-07
-9.89663e-06
-3.43108e-07
-9.84121e-06
-2.77706e-07
-9.78037e-06
-2.61692e-07
-9.72531e-06
-1.82602e-07
-9.72459e-06
-1.18066e-07
-9.69852e-06
-9.86095e-08
-9.67842e-06
-5.73076e-08
-9.71262e-06
-1.02163e-08
-9.71305e-06
-3.95365e-09
-9.75149e-06
1.63594e-08
-9.78561e-06
2.91551e-08
-9.79866e-06
3.31996e-08
-9.79481e-06
4.08816e-08
-9.8167e-06
6.50489e-08
-9.82953e-06
5.42749e-08
-9.85261e-06
7.23194e-08
-9.88126e-06
7.41849e-08
-9.91264e-06
7.7876e-08
-9.91768e-06
7.04798e-08
-9.93066e-06
7.77765e-08
-9.96277e-06
1.03915e-07
-1.00139e-05
1.23596e-07
-1.00581e-05
1.21471e-07
-1.00806e-05
1.29616e-07
-1.00476e-05
9.20124e-08
-1.0017e-05
9.72562e-08
-1.00195e-05
7.98831e-08
-1.00463e-05
5.75242e-08
-1.00295e-05
7.77037e-09
-1.22724e-08
-9.96203e-06
-3.49662e-07
-9.96746e-06
-2.70675e-07
-9.97378e-06
-2.04701e-07
-9.97968e-06
-1.52689e-07
-9.98461e-06
-1.12991e-07
-9.98851e-06
-8.32346e-08
-9.99149e-06
-6.11566e-08
-9.99373e-06
-4.4869e-08
-9.99539e-06
-3.28919e-08
-9.99662e-06
-2.41005e-08
-9.99752e-06
-1.76542e-08
-9.99819e-06
-1.29302e-08
-9.99867e-06
-9.46944e-09
-9.99903e-06
-6.93461e-09
-9.99929e-06
-5.07817e-09
-9.99948e-06
-3.71865e-09
-9.99962e-06
-2.72307e-09
-9.99972e-06
-1.99401e-09
-9.9998e-06
-1.46012e-09
-9.99985e-06
-1.06917e-09
-9.99989e-06
-7.82867e-10
-9.99992e-06
-5.73201e-10
-9.99994e-06
-4.19646e-10
-9.99996e-06
-3.0717e-10
-9.99997e-06
-2.24764e-10
-9.99998e-06
-1.6436e-10
-9.99999e-06
-1.20047e-10
-9.99999e-06
-8.74854e-11
-9.99999e-06
-6.34884e-11
-1e-05
-4.57067e-11
-1e-05
-3.23993e-11
-1e-05
-2.22636e-11
-1e-05
-1.43071e-11
-1e-05
-7.75082e-12
-1e-05
-1.95278e-12
-1e-05
3.65477e-12
-1e-05
9.62094e-12
-1e-05
1.653e-11
-1e-05
2.50586e-11
-1e-05
3.6042e-11
-9.99999e-06
5.05564e-11
-9.99999e-06
7.00241e-11
-9.99999e-06
9.63534e-11
-9.99998e-06
1.32127e-10
-9.99997e-06
1.80855e-10
-9.99996e-06
2.47324e-10
-9.99994e-06
3.38072e-10
-9.99992e-06
4.62036e-10
-9.99989e-06
6.31455e-10
-9.99984e-06
8.63098e-10
-9.99979e-06
1.17998e-09
-9.99972e-06
1.61374e-09
-9.99962e-06
2.20797e-09
-9.9995e-06
3.02285e-09
-9.99935e-06
4.14179e-09
-9.99917e-06
5.6808e-09
-9.99898e-06
7.80183e-09
-9.99881e-06
1.0732e-08
-9.99877e-06
1.47903e-08
-9.99905e-06
2.04248e-08
-1.00001e-05
2.82594e-08
-1.00027e-05
3.91434e-08
-1.00084e-05
5.41798e-08
-1.00201e-05
7.46844e-08
-1.00436e-05
1.02102e-07
-1.00908e-05
1.38693e-07
-1.01949e-05
1.94327e-07
-1.04589e-05
3.03155e-07
-1.05661e-05
-6.44208e-08
-1.00856e-05
-9.1841e-07
-9.72851e-06
-7.00185e-07
-9.65617e-06
-3.50042e-07
-9.70389e-06
-2.13968e-07
-9.71469e-06
-1.71807e-07
-9.71275e-06
-1.20006e-07
-9.74476e-06
-6.65962e-08
-9.77169e-06
-3.03751e-08
-9.76506e-06
-1.68538e-08
-9.77685e-06
7.83704e-09
-9.8003e-06
3.98083e-08
-9.82336e-06
5.22166e-08
-9.84019e-06
5.00319e-08
-9.83167e-06
3.2359e-08
-9.80783e-06
4.12183e-08
-9.79082e-06
3.72578e-08
-9.75564e-06
3.71399e-08
-9.73805e-06
5.6594e-08
-9.75737e-06
9.72034e-08
-9.79217e-06
1.05277e-07
-9.82344e-06
1.0905e-07
-9.81076e-06
9.12323e-08
-9.78903e-06
1.01869e-07
-9.78401e-06
1.16452e-07
-9.7452e-06
9.08e-08
-9.77384e-06
1.20652e-07
-9.75912e-06
8.25365e-08
-9.70831e-06
2.90799e-08
-9.74648e-06
9.56962e-08
-9.83429e-06
9.55784e-08
1.53436e-07
-9.88305e-06
-3.40791e-07
-9.90149e-06
-2.52231e-07
-9.92177e-06
-1.84419e-07
-9.93998e-06
-1.34484e-07
-9.95485e-06
-9.81151e-08
-9.96643e-06
-7.16581e-08
-9.9752e-06
-5.23843e-08
-9.98175e-06
-3.83196e-08
-9.9866e-06
-2.8043e-08
-9.99017e-06
-2.05276e-08
-9.9928e-06
-1.50286e-08
-9.99472e-06
-1.10037e-08
-9.99614e-06
-8.05708e-09
-9.99717e-06
-5.89971e-09
-9.99793e-06
-4.32007e-09
-9.99848e-06
-3.1634e-09
-9.99889e-06
-2.31642e-09
-9.99919e-06
-1.69622e-09
-9.99941e-06
-1.24206e-09
-9.99957e-06
-9.09483e-10
-9.99968e-06
-6.6594e-10
-9.99977e-06
-4.87587e-10
-9.99983e-06
-3.56966e-10
-9.99988e-06
-2.61289e-10
-9.99991e-06
-1.91191e-10
-9.99994e-06
-1.39809e-10
-9.99995e-06
-1.02115e-10
-9.99997e-06
-7.44172e-11
-9.99998e-06
-5.40049e-11
-9.99998e-06
-3.88797e-11
-9.99999e-06
-2.75605e-11
-9.99999e-06
-1.89393e-11
-9.99999e-06
-1.21717e-11
-9.99999e-06
-6.59519e-12
-9.99999e-06
-1.66357e-12
-9.99999e-06
3.10611e-12
-9.99999e-06
8.18105e-12
-9.99999e-06
1.40584e-11
-9.99999e-06
2.13139e-11
-9.99998e-06
3.06587e-11
-9.99997e-06
4.3009e-11
-9.99996e-06
5.9576e-11
-9.99995e-06
8.19861e-11
-9.99993e-06
1.12441e-10
-9.9999e-06
1.53937e-10
-9.99987e-06
2.10562e-10
-9.99982e-06
2.87911e-10
-9.99975e-06
3.93646e-10
-9.99965e-06
5.38287e-10
-9.99953e-06
7.36304e-10
-9.99936e-06
1.00766e-09
-9.99912e-06
1.37996e-09
-9.99881e-06
1.89162e-09
-9.99838e-06
2.59631e-09
-9.99781e-06
3.56968e-09
-9.99705e-06
4.91934e-09
-9.99605e-06
6.80021e-09
-9.99475e-06
9.43868e-09
-9.99313e-06
1.31713e-08
-9.99122e-06
1.85076e-08
-9.98919e-06
2.62329e-08
-9.98762e-06
3.75704e-08
-9.98785e-06
5.44129e-08
-9.99271e-06
7.95441e-08
-1.0007e-05
1.16408e-07
-1.00351e-05
1.66802e-07
-1.0063e-05
2.22218e-07
-9.96158e-06
2.01712e-07
-9.66109e-06
-3.64905e-07
-9.84585e-06
-7.33656e-07
-1.00102e-05
-5.35871e-07
-9.97719e-06
-3.83019e-07
-9.94798e-06
-2.43173e-07
-9.97215e-06
-1.47634e-07
-1.00334e-05
-5.87157e-08
-1.00443e-05
-5.57323e-08
-1.0054e-05
-2.07147e-08
-1.00854e-05
1.4583e-08
-1.01052e-05
2.76029e-08
-1.00888e-05
2.34852e-08
-1.00482e-05
1.15789e-08
-1.00346e-05
3.64551e-08
-1.00343e-05
3.20382e-08
-1.00241e-05
3.09963e-08
-1.00414e-05
5.46124e-08
-1.00542e-05
4.99321e-08
-1.0066e-05
6.83657e-08
-1.00562e-05
8.7369e-08
-1.00698e-05
1.18903e-07
-1.008e-05
1.19271e-07
-1.00868e-05
9.79987e-08
-1.00515e-05
6.65875e-08
-1.00213e-05
8.62564e-08
-1.00405e-05
1.10041e-07
-1.00033e-05
8.34444e-08
-9.99475e-06
7.39536e-08
-1.00568e-05
9.11691e-08
-1.00558e-05
9.46436e-08
-1.00988e-05
1.38545e-07
5.46797e-08
-9.79449e-06
-3.17264e-07
-9.83368e-06
-2.13038e-07
-9.87184e-06
-1.46258e-07
-9.90361e-06
-1.02715e-07
-9.9284e-06
-7.33273e-08
-9.94716e-06
-5.28986e-08
-9.96114e-06
-3.84027e-08
-9.97147e-06
-2.79823e-08
-9.97908e-06
-2.04328e-08
-9.98467e-06
-1.49383e-08
-9.98877e-06
-1.09289e-08
-9.99178e-06
-7.99876e-09
-9.99398e-06
-5.85552e-09
-9.99559e-06
-4.28709e-09
-9.99677e-06
-3.139e-09
-9.99764e-06
-2.29845e-09
-9.99827e-06
-1.68302e-09
-9.99874e-06
-1.23238e-09
-9.99907e-06
-9.02402e-10
-9.99932e-06
-6.60769e-10
-9.99951e-06
-4.83824e-10
-9.99964e-06
-3.54243e-10
-9.99974e-06
-2.59342e-10
-9.99981e-06
-1.89829e-10
-9.99986e-06
-1.38901e-10
-9.9999e-06
-1.01571e-10
-9.99993e-06
-7.41858e-11
-9.99995e-06
-5.40636e-11
-9.99996e-06
-3.92344e-11
-9.99997e-06
-2.82464e-11
-9.99998e-06
-2.00237e-11
-9.99998e-06
-1.3761e-11
-9.99999e-06
-8.84512e-12
-9.99999e-06
-4.79447e-12
-9.99999e-06
-1.21228e-12
-9.99999e-06
2.25236e-12
-9.99999e-06
5.93893e-12
-9.99998e-06
1.02087e-11
-9.99998e-06
1.54801e-11
-9.99997e-06
2.22701e-11
-9.99996e-06
3.12447e-11
-9.99994e-06
4.32849e-11
-9.99992e-06
5.95739e-11
-9.99989e-06
8.17143e-11
-9.99985e-06
1.11888e-10
-9.99979e-06
1.53077e-10
-9.99971e-06
2.09363e-10
-9.9996e-06
2.86348e-10
-9.99946e-06
3.91741e-10
-9.99926e-06
5.36174e-10
-9.99898e-06
7.34371e-10
-9.99861e-06
1.00682e-09
-9.9981e-06
1.38222e-09
-9.99741e-06
1.90108e-09
-9.99646e-06
2.62126e-09
-9.99517e-06
3.62662e-09
-9.99341e-06
5.04092e-09
-9.99102e-06
7.0512e-09
-9.9878e-06
9.94847e-09
-9.98349e-06
1.42013e-08
-9.97785e-06
2.0594e-08
-9.97078e-06
3.04924e-08
-9.96272e-06
4.6357e-08
-9.95585e-06
7.26711e-08
-9.95662e-06
1.17182e-07
-9.97959e-06
1.8977e-07
-1.00369e-05
2.79515e-07
-9.9832e-06
1.48018e-07
-9.73418e-06
-6.13921e-07
-9.83094e-06
-6.36897e-07
-9.92265e-06
-4.44167e-07
-1.00033e-05
-3.02346e-07
-1.0071e-05
-1.75475e-07
-1.0131e-05
-8.767e-08
-1.01281e-05
-6.15545e-08
-1.01452e-05
-3.86718e-08
-1.01145e-05
-5.14286e-08
-1.00863e-05
-1.35798e-08
-1.0055e-05
-3.68059e-09
-1.00336e-05
2.0266e-09
-1.00473e-05
2.53174e-08
-1.00361e-05
2.52195e-08
-1.00551e-05
5.10786e-08
-1.00888e-05
6.46701e-08
-1.00863e-05
5.21611e-08
-1.01012e-05
6.4738e-08
-1.00988e-05
6.60171e-08
-1.00721e-05
6.06667e-08
-1.00264e-05
7.3226e-08
-9.98548e-06
7.83257e-08
-9.96961e-06
8.21324e-08
-9.99941e-06
9.63925e-08
-1.00113e-05
9.81492e-08
-9.98108e-06
7.98158e-08
-9.93257e-06
3.49355e-08
-9.88159e-06
2.29738e-08
-9.90327e-06
1.12844e-07
-9.9475e-06
1.38883e-07
-9.9181e-06
1.09138e-07
1.36583e-07
-9.69026e-06
-2.47692e-07
-9.7669e-06
-1.36398e-07
-9.8283e-06
-8.48613e-08
-9.87422e-06
-5.67892e-08
-9.90797e-06
-3.95807e-08
-9.93266e-06
-2.82062e-08
-9.95072e-06
-2.03457e-08
-9.96393e-06
-1.47739e-08
-9.97359e-06
-1.07677e-08
-9.98066e-06
-7.86397e-09
-9.98584e-06
-5.74995e-09
-9.98963e-06
-4.20695e-09
-9.99241e-06
-3.07914e-09
-9.99444e-06
-2.25414e-09
-9.99593e-06
-1.65037e-09
-9.99702e-06
-1.2084e-09
-9.99782e-06
-8.84813e-10
-9.99841e-06
-6.47888e-10
-9.99883e-06
-4.74403e-10
-9.99915e-06
-3.47368e-10
-9.99938e-06
-2.54343e-10
-9.99954e-06
-1.86219e-10
-9.99967e-06
-1.36328e-10
-9.99976e-06
-9.97852e-11
-9.99982e-06
-7.30125e-11
-9.99987e-06
-5.33892e-11
-9.99991e-06
-3.89938e-11
-9.99993e-06
-2.84168e-11
-9.99995e-06
-2.06226e-11
-9.99996e-06
-1.48478e-11
-9.99997e-06
-1.05266e-11
-9.99998e-06
-7.23591e-12
-9.99998e-06
-4.65311e-12
-9.99999e-06
-2.5251e-12
-9.99999e-06
-6.43278e-13
-9.99999e-06
1.17686e-12
-9.99998e-06
3.11379e-12
-9.99998e-06
5.35745e-12
-9.99997e-06
8.12788e-12
-9.99996e-06
1.16969e-11
-9.99995e-06
1.64148e-11
-9.99992e-06
2.27451e-11
-9.9999e-06
3.13103e-11
-9.99986e-06
4.29539e-11
-9.99981e-06
5.88251e-11
-9.99973e-06
8.04945e-11
-9.99963e-06
1.10115e-10
-9.9995e-06
1.50643e-10
-9.99931e-06
2.06153e-10
-9.99906e-06
2.82276e-10
-9.99871e-06
3.8683e-10
-9.99824e-06
5.30732e-10
-9.99758e-06
7.29343e-10
-9.99669e-06
1.0045e-09
-9.99545e-06
1.38765e-09
-9.99375e-06
1.92494e-09
-9.9914e-06
2.68559e-09
-9.98812e-06
3.77666e-09
-9.98354e-06
5.37e-09
-9.9771e-06
7.75508e-09
-9.96795e-06
1.14492e-08
-9.95491e-06
1.74482e-08
-9.93641e-06
2.78514e-08
-9.91134e-06
4.76008e-08
-9.88404e-06
8.98812e-08
-9.88889e-06
1.94622e-07
-1.00362e-05
4.26856e-07
-9.89121e-06
2.9933e-09
-9.77675e-06
-7.28376e-07
-9.86889e-06
-5.44762e-07
-9.9836e-06
-3.2946e-07
-1.00858e-05
-2.00162e-07
-1.01539e-05
-1.07342e-07
-1.02154e-05
-2.6212e-08
-1.02619e-05
-1.50045e-08
-1.026e-05
-4.05615e-08
-1.02817e-05
-2.97785e-08
-1.02739e-05
-2.13612e-08
-1.02631e-05
-1.45112e-08
-1.02657e-05
4.69568e-09
-1.02868e-05
4.64249e-08
-1.02905e-05
2.88312e-08
-1.02733e-05
3.39309e-08
-1.02547e-05
4.6104e-08
-1.02568e-05
5.42664e-08
-1.02405e-05
4.83544e-08
-1.02504e-05
7.59061e-08
-1.02569e-05
6.72605e-08
-1.02156e-05
3.18948e-08
-1.01732e-05
3.59455e-08
-1.01472e-05
5.61104e-08
-1.01392e-05
8.84021e-08
-1.01114e-05
7.03257e-08
-1.00771e-05
4.55235e-08
-1.01343e-05
9.21493e-08
-1.0163e-05
5.16087e-08
-1.00828e-05
3.27124e-08
-9.98572e-06
4.17875e-08
-9.9623e-06
8.57146e-08
1.74284e-07
-9.57896e-06
-9.71536e-06
-9.80022e-06
-9.85701e-06
-9.89659e-06
-9.9248e-06
-9.94514e-06
-9.95992e-06
-9.97069e-06
-9.97855e-06
-9.9843e-06
-9.98851e-06
-9.99159e-06
-9.99384e-06
-9.99549e-06
-9.9967e-06
-9.99758e-06
-9.99823e-06
-9.99871e-06
-9.99905e-06
-9.99931e-06
-9.99949e-06
-9.99963e-06
-9.99973e-06
-9.9998e-06
-9.99986e-06
-9.9999e-06
-9.99992e-06
-9.99994e-06
-9.99996e-06
-9.99997e-06
-9.99998e-06
-9.99998e-06
-9.99998e-06
-9.99998e-06
-9.99998e-06
-9.99998e-06
-9.99998e-06
-9.99997e-06
-9.99996e-06
-9.99994e-06
-9.99992e-06
-9.99989e-06
-9.99984e-06
-9.99978e-06
-9.9997e-06
-9.99959e-06
-9.99944e-06
-9.99924e-06
-9.99895e-06
-9.99857e-06
-9.99804e-06
-9.99731e-06
-9.9963e-06
-9.99492e-06
-9.99299e-06
-9.99031e-06
-9.98653e-06
-9.98116e-06
-9.9734e-06
-9.96196e-06
-9.94451e-06
-9.91666e-06
-9.86906e-06
-9.77918e-06
-9.58455e-06
-9.1577e-06
-9.15471e-06
-9.88308e-06
-1.04278e-05
-1.07573e-05
-1.09575e-05
-1.10648e-05
-1.1091e-05
-1.1106e-05
-1.11466e-05
-1.11764e-05
-1.11977e-05
-1.12122e-05
-1.12075e-05
-1.11611e-05
-1.11323e-05
-1.10984e-05
-1.10522e-05
-1.0998e-05
-1.09496e-05
-1.08737e-05
-1.08065e-05
-1.07746e-05
-1.07386e-05
-1.06825e-05
-1.05941e-05
-1.05238e-05
-1.04783e-05
-1.03861e-05
-1.03345e-05
-1.03018e-05
-1.026e-05
-1.01743e-05
)
;

boundaryField
{
    inlet
    {
        type            calculated;
        value           nonuniform List<scalar> 10(-1e-05 -1e-05 -1e-05 -1e-05 -1e-05 -1e-05 -1e-05 -1e-05 -1e-05 -1e-05);
    }
    outlet
    {
        type            calculated;
        value           nonuniform List<scalar> 10(1.06687e-05 1.03793e-05 1.02291e-05 1.01258e-05 1.00404e-05 9.95965e-06 9.87418e-06 9.77096e-06 9.62069e-06 9.33127e-06);
    }
    walls
    {
        type            calculated;
        value           uniform 0;
    }
}


// ************************************************************************* //
