/*--------------------------------*- C++ -*----------------------------------*\
| =========                 |                                                 |
| \\      /  F ield         | foam-extend: Open Source CFD                    |
|  \\    /   O peration     | Version:     5.0                                |
|   \\  /    A nd           | Web:         http://www.foam-extend.org         |
|    \\/     M anipulation  |                                                 |
\*---------------------------------------------------------------------------*/
FoamFile
{
    version     2.0;
    format      ascii;
    class       surfaceScalarField;
    location    "4000";
    object      phi.gas;
}
// * * * * * * * * * * * * * * * * * * * * * * * * * * * * * * * * * * * * * //

dimensions      [0 3 -1 0 0 0 0];

internalField   nonuniform List<scalar> 
1890
(
0
0
0
0
0
0
0
0
0
0
0
0
0
0
0
0
0
0
0
0
0
0
0
0
0
0
0
0
0
0
0
0
0
0
0
0
0
0
0
0
0
0
0
0
0
0
0
0
0
0
0
0
0
0
0
0
0
0
0
0
0
0
0
0
0
0
0
0
0
0
0
0
0
0
0
0
0
0
0
0
0
0
0
0
0
0
0
0
0
0
0
0
0
0
0
0
0
0
0
0
0
0
0
0
0
0
0
0
0
0
0
0
0
0
0
0
0
0
0
0
0
0
0
0
0
0
0
0
0
0
1.49724e-41
0
4.67644e-20
-1.27261e-17
-5.23132e-10
-2.179e-11
-5.43156e-07
-4.22859e-09
-1.09055e-05
-2.60031e-08
-5.64688e-05
-8.28085e-06
-5.71225e-05
-6.15011e-06
-5.5021e-05
-2.6094e-06
-5.3389e-05
-4.62208e-07
-5.1988e-05
2.61679e-07
-5.61817e-05
2.7747e-07
-5.71817e-05
3.04005e-07
-5.91212e-05
3.7426e-07
-6.18868e-05
3.65916e-07
-5.778e-05
4.05658e-07
-6.08026e-05
4.43549e-07
-7.32999e-05
5.26694e-07
-6.69122e-05
3.32341e-07
-5.92492e-05
5.09482e-07
-6.21047e-05
5.60747e-07
-6.20049e-05
4.98633e-07
-6.17843e-05
3.78062e-07
-6.1488e-05
3.51512e-07
-5.83069e-05
5.32041e-07
-5.54842e-05
5.35696e-07
-5.27779e-05
5.78284e-07
-5.49831e-05
6.78625e-07
-6.64642e-05
4.60449e-07
-6.35879e-05
2.21146e-07
-5.82839e-05
3.7936e-07
-5.33985e-05
6.09293e-07
-5.16407e-05
6.06252e-07
-5.42455e-05
7.52422e-07
-5.54858e-05
2.81101e-07
5.82569e-07
0
0
0
0
0
0
0
0
0
0
0
0
0
0
0
0
0
0
0
0
0
0
0
0
0
0
0
0
0
0
0
0
0
0
0
0
0
0
0
0
0
0
0
0
0
0
0
0
0
0
0
0
0
0
0
0
0
0
0
0
0
0
0
0
0
0
0
0
0
0
0
0
0
0
0
0
0
0
0
0
0
0
0
0
0
0
0
0
0
0
0
0
0
0
0
0
0
0
0
0
0
0
0
0
0
0
0
0
0
0
0
0
0
0
0
0
0
0
0
0
0
0
0
0
0
0
0
0
0
0
7.84818e-14
0
-2.2381e-08
-3.42523e-15
-4.32787e-06
8.78737e-10
-2.89711e-05
1.32401e-07
-7.858e-05
1.09815e-06
-8.28816e-05
2.36411e-07
-8.77442e-05
-1.35707e-06
-8.68623e-05
-1.65063e-06
-8.67555e-05
-9.54029e-07
-7.01396e-05
-3.1364e-07
-5.76676e-05
3.30391e-07
-6.01053e-05
4.58301e-07
-6.25884e-05
5.85308e-07
-6.38847e-05
4.51033e-07
-6.84639e-05
6.10743e-07
-8.01128e-05
4.54328e-07
-7.29441e-05
5.30322e-07
-7.10593e-05
3.27349e-07
-8.09021e-05
4.02531e-07
-7.37477e-05
6.3935e-07
-6.13996e-05
5.86089e-07
-5.49205e-05
7.44594e-07
-6.39896e-05
5.78188e-07
-7.18582e-05
5.16211e-07
-6.74854e-05
5.86454e-07
-7.46794e-05
6.72812e-07
-7.33851e-05
4.95724e-07
-5.87147e-05
4.51487e-07
-5.81534e-05
4.35864e-07
-7.04231e-05
3.17914e-07
-6.67424e-05
2.79452e-07
-6.56793e-05
7.19661e-07
-5.71874e-05
6.5955e-07
-5.46282e-05
4.25929e-07
4.27274e-07
0
0
0
0
0
0
0
0
0
0
0
0
0
0
0
0
0
0
0
0
0
0
0
0
0
0
0
0
0
0
0
0
0
0
0
0
0
0
0
0
0
0
0
0
0
0
0
0
0
0
0
0
0
0
0
0
0
0
0
0
0
0
0
0
0
0
0
0
0
0
0
0
0
0
0
0
0
0
0
0
0
0
0
0
0
0
0
0
0
0
0
0
0
0
0
0
0
0
0
0
0
0
0
0
0
0
0
0
0
0
0
0
0
0
0
0
0
0
0
0
0
0
0
0
0
0
0
0
0
0
1.49495e-20
0
-8.17306e-10
-5.30606e-20
-7.27163e-07
-1.05313e-11
-1.65087e-05
4.37342e-09
-4.69934e-05
-4.91056e-09
-6.35388e-05
-1.36446e-06
-6.51171e-05
-1.21022e-06
-6.11346e-05
-9.4304e-07
-6.51227e-05
-5.09113e-07
-7.45745e-05
-3.58589e-07
-7.408e-05
3.37713e-08
-7.80747e-05
1.84143e-07
-7.31213e-05
2.78706e-07
-7.52793e-05
2.90652e-07
-7.64837e-05
3.28113e-07
-7.43387e-05
2.88998e-07
-6.6293e-05
3.08543e-07
-5.77492e-05
3.76491e-07
-6.77728e-05
3.71294e-07
-6.89034e-05
6.25293e-07
-6.86726e-05
5.20855e-07
-6.44661e-05
7.19472e-07
-5.46193e-05
6.91707e-07
-5.54712e-05
6.51559e-07
-6.16887e-05
7.65047e-07
-5.94694e-05
7.03466e-07
-5.51481e-05
6.9646e-07
-5.70213e-05
6.09049e-07
-5.36084e-05
4.59585e-07
-4.9653e-05
5.82288e-07
-5.88521e-05
6.57491e-07
-7.15275e-05
6.44127e-07
-5.57478e-05
3.49884e-07
-5.32499e-05
7.0234e-07
3.48948e-07
0
0
0
0
0
0
0
0
0
0
0
0
0
0
0
0
0
0
0
0
0
0
0
0
0
0
0
0
0
0
0
0
0
0
0
0
0
0
0
0
0
0
0
0
0
0
0
0
0
0
0
0
0
0
0
0
0
0
0
0
0
0
0
0
0
0
0
0
0
0
0
0
0
0
0
0
0
0
0
0
0
0
0
0
0
0
0
0
0
0
0
0
0
0
0
0
0
0
0
0
0
0
0
0
0
0
0
0
0
0
0
0
0
0
0
0
0
0
0
0
0
0
0
0
0
0
0
0
0
0
2.0547e-15
0
-1.44015e-08
-8.74336e-17
-1.80968e-06
4.13992e-10
-2.73961e-05
1.97808e-08
-6.88825e-05
3.26594e-07
-6.29763e-05
-8.24715e-08
-7.05271e-05
-4.43646e-07
-6.7465e-05
-7.16562e-07
-6.30345e-05
-2.01443e-07
-7.22479e-05
-1.7969e-07
-7.16916e-05
6.87976e-08
-7.18186e-05
3.00009e-07
-6.94459e-05
1.84167e-07
-6.95208e-05
4.48155e-07
-7.07191e-05
2.68141e-07
-6.55037e-05
3.23006e-07
-6.37809e-05
4.89618e-07
-6.07385e-05
6.42691e-07
-7.17505e-05
5.19829e-07
-7.69961e-05
6.90788e-07
-7.46102e-05
5.71089e-07
-8.04909e-05
5.93541e-07
-7.30011e-05
5.17372e-07
-7.4412e-05
6.39602e-07
-7.55503e-05
6.61388e-07
-7.26721e-05
6.31044e-07
-6.96687e-05
6.08784e-07
-5.75398e-05
5.67582e-07
-5.44274e-05
6.50575e-07
-6.01623e-05
8.66799e-07
-6.75231e-05
9.55251e-07
-6.59957e-05
6.00866e-07
-6.45133e-05
2.0454e-07
-6.37736e-05
1.81251e-07
1.11295e-07
0
0
0
0
0
0
0
0
0
0
0
0
0
0
0
0
0
0
0
0
0
0
0
0
0
0
0
0
0
0
0
0
0
0
0
0
0
0
0
0
0
0
0
0
0
0
0
0
0
0
0
0
0
0
0
0
0
0
0
0
0
0
0
0
0
0
0
0
0
0
0
0
0
0
0
0
0
0
0
0
0
0
0
0
0
0
0
0
0
0
0
0
0
0
0
0
0
0
0
0
0
0
0
0
0
0
0
0
0
0
0
0
0
0
0
0
0
0
0
0
0
0
0
0
0
0
0
0
0
0
1.46855e-18
0
-2.47622e-09
-7.02487e-20
-8.84874e-07
5.94465e-11
-1.55471e-05
8.95888e-09
-5.53755e-05
-9.92279e-08
-6.50942e-05
-5.70662e-07
-7.50637e-05
-5.94313e-07
-8.38002e-05
-9.30629e-07
-7.21309e-05
-6.50583e-07
-7.53178e-05
-2.07453e-07
-8.92367e-05
-1.3806e-07
-6.83349e-05
1.28836e-07
-6.75883e-05
3.70242e-07
-6.67441e-05
4.73146e-07
-5.6002e-05
4.47126e-07
-6.10698e-05
4.95713e-07
-7.02963e-05
5.66968e-07
-6.31272e-05
6.56312e-07
-6.3196e-05
7.28168e-07
-6.57423e-05
7.27174e-07
-6.10169e-05
7.9227e-07
-5.79422e-05
7.6511e-07
-5.90309e-05
6.37061e-07
-6.4187e-05
6.11099e-07
-6.20542e-05
6.41284e-07
-5.8697e-05
8.47734e-07
-5.56462e-05
9.49597e-07
-5.50685e-05
7.89598e-07
-6.26436e-05
9.05124e-07
-7.46629e-05
6.35561e-07
-7.31386e-05
8.37762e-07
-5.89246e-05
6.36515e-07
-5.63632e-05
3.26713e-07
-6.04187e-05
6.74256e-08
-5.30721e-08
0
0
0
0
0
0
0
0
0
0
0
0
0
0
0
0
0
0
0
0
0
0
0
0
0
0
0
0
0
0
0
0
0
0
0
0
0
0
0
0
0
0
0
0
0
0
0
0
0
0
0
0
0
0
0
0
0
0
0
0
0
0
0
0
0
0
0
0
0
0
0
0
0
0
0
0
0
0
0
0
0
0
0
0
0
0
0
0
0
0
0
0
0
0
0
0
0
0
0
0
0
0
0
0
0
0
0
0
0
0
0
0
0
0
0
0
0
0
0
0
0
0
0
0
0
0
0
0
0
0
3.83808e-19
-7.47031e-32
-2.11458e-09
-1.62943e-13
-6.50005e-07
-2.32982e-10
-1.77817e-05
-7.82014e-09
-6.9959e-05
-2.86219e-06
-6.14996e-05
-3.41995e-06
-5.86326e-05
-1.82407e-06
-6.48923e-05
-7.73488e-07
-7.07335e-05
-5.6734e-07
-6.71907e-05
-2.56109e-07
-6.59745e-05
3.58894e-08
-6.93886e-05
2.60387e-07
-7.09698e-05
2.91254e-07
-6.40698e-05
4.46877e-07
-5.86137e-05
6.2176e-07
-6.11749e-05
7.19009e-07
-6.70251e-05
7.03199e-07
-7.39874e-05
5.16752e-07
-7.54398e-05
6.62789e-07
-7.71916e-05
5.30802e-07
-7.63747e-05
5.32823e-07
-6.28388e-05
6.11776e-07
-5.45975e-05
8.37753e-07
-5.42715e-05
7.71447e-07
-6.17556e-05
8.23894e-07
-7.13105e-05
7.64373e-07
-6.31129e-05
9.59333e-07
-6.09321e-05
8.59129e-07
-5.68019e-05
6.3884e-07
-5.91197e-05
8.06387e-07
-7.21946e-05
7.14722e-07
-5.64207e-05
2.2214e-07
-4.62459e-05
5.52067e-07
-4.6055e-05
4.79208e-07
8.48801e-07
0
0
0
0
0
0
0
0
0
0
0
0
0
0
0
0
0
0
0
0
0
0
0
0
0
0
0
0
0
0
0
0
0
0
0
0
0
0
0
0
0
0
0
0
0
0
0
0
0
0
0
0
0
0
0
0
0
0
0
0
0
0
0
0
0
0
0
0
0
0
0
0
0
0
0
0
0
0
0
0
0
0
0
0
0
0
0
0
0
0
0
0
0
0
0
0
0
0
0
0
0
0
0
0
0
0
0
0
0
0
0
0
0
0
0
0
0
0
0
0
0
0
0
0
0
0
0
0
2.08409e-23
0
-1.75688e-10
-1.29489e-24
-2.41493e-07
-5.65592e-13
-1.13764e-05
3.02545e-09
-4.81731e-05
-4.24615e-08
-6.18684e-05
-2.419e-06
-7.7148e-05
-2.22611e-06
-8.24249e-05
-2.08397e-06
-7.04546e-05
-1.02679e-06
-6.15847e-05
-3.88703e-07
-6.36451e-05
1.08097e-07
-7.32207e-05
9.40322e-08
-6.59322e-05
3.65285e-07
-6.18788e-05
5.08393e-07
-7.11474e-05
6.5381e-07
-8.10526e-05
6.19723e-07
-8.27432e-05
4.40505e-07
-6.96047e-05
7.22248e-07
-6.95e-05
4.6173e-07
-7.0593e-05
4.96055e-07
-6.37011e-05
6.59394e-07
-6.33014e-05
5.23828e-07
-6.95296e-05
6.54061e-07
-6.86994e-05
9.05908e-07
-6.48966e-05
1.05803e-06
-6.58529e-05
1.09913e-06
-7.273e-05
7.9913e-07
-7.81599e-05
5.8734e-07
-6.16048e-05
7.04524e-07
-6.26231e-05
7.52295e-07
-7.69515e-05
7.09028e-07
-6.00457e-05
6.75248e-07
-5.52243e-05
5.00445e-07
-5.61892e-05
5.76009e-07
-5.77943e-05
7.87708e-07
3.19249e-07
0
0
0
0
0
0
0
0
0
0
0
0
0
0
0
0
0
0
0
0
0
0
0
0
0
0
0
0
0
0
0
0
0
0
0
0
0
0
0
0
0
0
0
0
0
0
0
0
0
0
0
0
0
0
0
0
0
0
0
0
0
0
0
0
0
0
0
0
0
0
0
0
0
0
0
0
0
0
0
0
0
0
0
0
0
0
0
0
0
0
0
0
0
0
0
0
0
0
0
0
0
0
0
0
0
0
0
0
0
0
0
0
0
0
0
0
0
0
0
0
0
0
0
0
0
0
0
0
3.65552e-19
0
-1.85421e-09
-8.30404e-20
-7.24262e-07
3.19627e-13
-1.56245e-05
7.56416e-09
-6.11105e-05
-6.60871e-07
-6.92574e-05
-2.09638e-06
-7.12009e-05
-2.00517e-06
-6.93023e-05
-1.36481e-06
-6.22826e-05
-5.73411e-07
-7.10396e-05
-4.57432e-08
-7.16064e-05
8.76972e-08
-7.42212e-05
1.8788e-07
-8.69139e-05
8.59475e-08
-8.66576e-05
3.58772e-07
-8.59959e-05
4.38723e-07
-6.67702e-05
3.88755e-07
-7.04371e-05
4.26991e-07
-6.95163e-05
5.59031e-07
-5.77566e-05
5.70477e-07
-6.76711e-05
6.96606e-07
-6.69247e-05
6.43523e-07
-6.2099e-05
6.10619e-07
-7.14802e-05
6.26795e-07
-8.16877e-05
6.1508e-07
-8.60072e-05
8.55417e-07
-7.49488e-05
8.75964e-07
-6.00613e-05
6.98705e-07
-5.82359e-05
6.79501e-07
-6.49762e-05
7.73909e-07
-6.9294e-05
6.65119e-07
-7.43379e-05
2.84359e-07
-6.11939e-05
2.12791e-07
-5.09426e-05
7.34449e-07
-5.60829e-05
8.86883e-07
-5.40902e-05
6.59298e-07
6.9099e-07
0
0
0
0
0
0
0
0
0
0
0
0
0
0
0
0
0
0
0
0
0
0
0
0
0
0
0
0
0
0
0
0
0
0
0
0
0
0
0
0
0
0
0
0
0
0
0
0
0
0
0
0
0
0
0
0
0
0
0
0
0
0
0
0
0
0
0
0
0
0
0
0
0
0
0
0
0
0
0
0
0
0
0
0
0
0
0
0
0
0
0
0
0
0
0
0
0
0
0
0
0
0
0
0
0
0
0
0
0
0
0
0
0
0
0
0
0
0
0
0
0
0
0
0
0
0
0
0
2.43416e-15
-6.56516e-26
-1.41423e-08
-1.28325e-12
-1.83455e-06
-7.95945e-10
-3.11157e-05
-6.14607e-09
-5.87073e-05
-3.6888e-06
-6.75375e-05
-2.68583e-06
-6.97738e-05
-1.61725e-06
-7.03446e-05
-8.43071e-07
-6.89377e-05
-2.65559e-07
-7.11199e-05
2.46458e-07
-7.47792e-05
3.28691e-07
-6.73948e-05
8.6891e-08
-7.10363e-05
1.14228e-07
-8.27866e-05
1.73551e-07
-7.36931e-05
1.95994e-07
-6.3524e-05
2.66441e-07
-6.64633e-05
5.77958e-07
-7.10249e-05
4.31393e-07
-7.44085e-05
4.26834e-07
-7.36908e-05
5.87353e-07
-6.78459e-05
5.83944e-07
-6.55876e-05
4.64603e-07
-6.35849e-05
7.19448e-07
-7.36572e-05
6.10574e-07
-8.70339e-05
3.79564e-07
-7.58294e-05
4.12115e-07
-6.5405e-05
4.72526e-07
-6.815e-05
7.3474e-07
-7.29514e-05
6.08858e-07
-5.94458e-05
3.6141e-07
-5.25481e-05
6.27257e-07
-6.42052e-05
3.23619e-07
-7.67081e-05
2.59082e-07
-6.37919e-05
3.07463e-07
-5.29995e-05
4.99053e-07
1.00966e-06
0
0
0
0
0
0
0
0
0
0
0
0
0
0
0
0
0
0
0
0
0
0
0
0
0
0
0
0
0
0
0
0
0
0
0
0
0
0
0
0
0
0
0
0
0
0
0
0
0
0
0
0
0
0
0
0
0
0
0
0
0
0
0
2.2236e-19
-1.31415e-09
-8.06077e-07
-1.56023e-05
-6.86826e-05
-7.2144e-05
-7.18588e-05
-7.285e-05
-7.32936e-05
-8.34232e-05
-9.84838e-05
-7.98918e-05
-6.63076e-05
-7.06363e-05
-7.35654e-05
-6.82417e-05
-7.86849e-05
-8.41818e-05
-7.14396e-05
-7.64227e-05
-8.43726e-05
-7.27294e-05
-7.60212e-05
-8.63808e-05
-7.18494e-05
-6.76061e-05
-6.83814e-05
-7.51463e-05
-8.05425e-05
-6.50237e-05
-6.75923e-05
-6.57982e-05
-5.69346e-05
-5.98187e-05
-5.97277e-05
-6.25997e-05
)
;

boundaryField
{
    inlet
    {
        type            fixedValue;
        value           nonuniform List<scalar> 10(-5e-05 -5e-05 -5e-05 -5e-05 -5e-05 -5e-05 -5e-05 -5e-05 -5e-05 -5e-05);
    }
    outlet
    {
        type            calculated;
        value           uniform 0;
    }
    walls
    {
        type            fixedValue;
        value           uniform 0;
    }
}


// ************************************************************************* //
