/*--------------------------------*- C++ -*----------------------------------*\
| =========                 |                                                 |
| \\      /  F ield         | foam-extend: Open Source CFD                    |
|  \\    /   O peration     | Version:     5.0                                |
|   \\  /    A nd           | Web:         http://www.foam-extend.org         |
|    \\/     M anipulation  |                                                 |
\*---------------------------------------------------------------------------*/
FoamFile
{
    version     2.0;
    format      ascii;
    class       surfaceScalarField;
    location    "4000";
    object      phi.oil;
}
// * * * * * * * * * * * * * * * * * * * * * * * * * * * * * * * * * * * * * //

dimensions      [0 3 -1 0 0 0 0];

internalField   nonuniform List<scalar> 
1890
(
-6.13003e-05
-1.27022e-06
-5.41297e-05
-7.37286e-07
-4.97551e-05
-4.13957e-07
-4.83e-05
-3.2451e-07
-5.05171e-05
-2.08319e-07
-6.10619e-05
-1.61179e-07
-6.48701e-05
-1.31263e-07
-6.0849e-05
-9.23372e-08
-5.27859e-05
-5.12748e-08
-5.01073e-05
-4.13897e-08
-5.56428e-05
-2.7381e-08
-5.72086e-05
-2.33723e-08
-5.40996e-05
-1.57908e-08
-5.55898e-05
-1.28812e-08
-5.00226e-05
-9.16911e-09
-4.34926e-05
-5.49302e-09
-4.34888e-05
-4.31649e-09
-5.40637e-05
-3.23976e-09
-5.26384e-05
-2.79096e-09
-5.00048e-05
-1.4784e-09
-4.87839e-05
-1.27197e-09
-4.6514e-05
-8.86977e-10
-5.40561e-05
-7.17729e-10
-6.06077e-05
-6.04968e-10
-5.88247e-05
-4.17379e-10
-4.76198e-05
-2.96733e-10
-4.8781e-05
-1.77321e-10
-5.00004e-05
-1.45784e-10
-4.44447e-05
-9.16807e-11
-4.54548e-05
-6.74905e-11
-4.87807e-05
-4.67629e-11
-4.76192e-05
-3.70569e-11
-4.54547e-05
-2.44146e-11
-4.87806e-05
-1.16587e-11
-4.65117e-05
-3.26857e-12
-4.16668e-05
5.11656e-12
-4.25533e-05
1.42816e-11
-5.12822e-05
2.50573e-11
-5.71431e-05
4.53217e-11
-5.40543e-05
6.17075e-11
-5.71432e-05
9.66771e-11
-5.55561e-05
1.29997e-10
-5.00006e-05
1.45502e-10
-4.87813e-05
2.04121e-10
-5.12832e-05
2.79152e-10
-5.00015e-05
4.44875e-10
-5.55579e-05
5.20487e-10
-6.45198e-05
9.61938e-10
-5.26356e-05
1.12925e-09
-4.44491e-05
1.3508e-09
-4.87874e-05
1.75309e-09
-4.87899e-05
2.92825e-09
-4.65239e-05
3.47828e-09
-5.71633e-05
4.28407e-09
-6.06354e-05
6.88413e-09
-5.88621e-05
1.00882e-08
-5.13275e-05
1.48326e-08
-4.26039e-05
1.42525e-08
-4.17332e-05
1.72541e-08
-4.35709e-05
2.21611e-08
-4.66428e-05
3.63694e-08
-4.77958e-05
4.56676e-08
-4.67376e-05
5.21598e-08
-5.43986e-05
7.05198e-08
-5.1721e-05
1.45634e-07
-4.49947e-05
1.59251e-07
-4.98185e-05
4.94351e-07
-5.8227e-05
1.24686e-06
-7.17364e-05
3.84552e-06
-6.35521e-05
3.44014e-07
-5.73068e-05
-4.09799e-06
-5.39216e-05
-3.70765e-06
-3.80205e-05
-1.87374e-06
-3.11786e-05
-1.01393e-06
-2.70458e-05
-6.23867e-07
-2.64767e-05
-4.80449e-07
-2.56928e-05
-5.17783e-07
-2.45203e-05
-4.45513e-07
-2.45484e-05
-5.07166e-07
-2.15358e-05
-4.56398e-07
-2.12435e-05
-4.44051e-07
-2.43129e-05
-5.30946e-07
-2.14323e-05
-5.52168e-07
-1.7567e-05
-4.36365e-07
-1.73854e-05
-4.35736e-07
-1.62836e-05
-4.19677e-07
-1.51733e-05
-3.83892e-07
-1.40731e-05
-3.70976e-07
-1.24088e-05
-3.79596e-07
-1.07723e-05
-3.19085e-07
-9.33309e-06
-2.97652e-07
-8.57889e-06
-2.82942e-07
-9.33011e-06
-3.25074e-07
-8.21132e-06
-3.46281e-07
-6.32016e-06
-2.67223e-07
-4.98907e-06
-2.60891e-07
-3.51962e-06
-1.72475e-07
-2.73848e-06
-1.89648e-07
-1.41146e-06
-1.52981e-07
-9.90243e-08
-4.90941e-05
-1.44211e-06
-5.11656e-05
-1.12125e-06
-5.81241e-05
-8.60342e-07
-6.53277e-05
-5.86941e-07
-6.11639e-05
-4.58296e-07
-6.10142e-05
-2.64493e-07
-6.28081e-05
-2.13348e-07
-4.89565e-05
-1.39911e-07
-4.77449e-05
-9.96724e-08
-5.00967e-05
-9.05355e-08
-4.76865e-05
-5.08323e-08
-5.00519e-05
-4.44378e-08
-5.40951e-05
-2.92778e-08
-5.71747e-05
-2.31737e-08
-5.00204e-05
-1.79374e-08
-5.12974e-05
-1.24243e-08
-5.71554e-05
-8.21003e-09
-5.40627e-05
-5.86866e-09
-4.65171e-05
-4.40213e-09
-4.25569e-05
-3.0735e-09
-4.87836e-05
-2.4813e-09
-5.40566e-05
-1.72815e-09
-5.88255e-05
-1.36508e-09
-5.71443e-05
-1.08486e-09
-5.4055e-05
-6.61515e-10
-5.26323e-05
-6.15667e-10
-4.76195e-05
-3.70981e-10
-4.54549e-05
-2.57479e-10
-4.54548e-05
-1.86849e-10
-4.44446e-05
-1.28396e-10
-4.65118e-05
-1.00107e-10
-5.7143e-05
-6.87798e-11
-5.40542e-05
-4.65131e-11
-5.00001e-05
-2.33392e-11
-4.76191e-05
-6.31803e-12
-4.65117e-05
1.16187e-11
-5.00001e-05
2.97641e-11
-5.00001e-05
5.6788e-11
-5.12822e-05
8.37308e-11
-5.71431e-05
1.31017e-10
-5.88239e-05
1.95203e-10
-4.76194e-05
2.16219e-10
-4.44449e-05
2.76642e-10
-4.65123e-05
4.40628e-10
-5.12831e-05
5.30956e-10
-5.2633e-05
8.2346e-10
-5.40561e-05
9.45372e-10
-5.55584e-05
1.57657e-09
-5.12856e-05
2.14997e-09
-5.12869e-05
2.45311e-09
-5.4061e-05
4.10426e-09
-5.88338e-05
5.92211e-09
-4.87921e-05
6.8084e-09
-4.34923e-05
7.82921e-09
-5.26548e-05
1.16035e-08
-6.45547e-05
1.8263e-08
-5.71891e-05
2.524e-08
-4.65625e-05
3.10708e-08
-4.26158e-05
3.73142e-08
-5.00985e-05
4.48258e-08
-5.89777e-05
8.3857e-08
-4.8949e-05
8.83874e-08
-4.56586e-05
1.06507e-07
-5.58726e-05
1.40138e-07
-5.1637e-05
2.06052e-07
-5.16567e-05
1.75221e-07
-5.28001e-05
2.55038e-07
-4.922e-05
4.99245e-08
-4.84161e-05
-3.09163e-07
-4.05118e-05
2.95108e-07
-4.70584e-05
-1.59878e-06
-4.2701e-05
-2.57596e-06
-4.02147e-05
-2.23082e-06
-3.69166e-05
-1.43292e-06
-2.87091e-05
-1.18769e-06
-2.11836e-05
-6.71806e-07
-2.06313e-05
-5.99313e-07
-2.03749e-05
-6.47121e-07
-1.96451e-05
-5.90655e-07
-1.99622e-05
-6.65108e-07
-2.224e-05
-6.41653e-07
-1.96798e-05
-7.95771e-07
-1.77731e-05
-5.32363e-07
-1.95806e-05
-6.17535e-07
-1.69823e-05
-6.16739e-07
-1.33436e-05
-5.02628e-07
-1.09545e-05
-4.36728e-07
-1.16672e-05
-3.95054e-07
-1.25203e-05
-4.63743e-07
-1.08276e-05
-4.24921e-07
-1.09499e-05
-4.2941e-07
-1.01503e-05
-4.37001e-07
-7.26798e-06
-3.7396e-07
-6.0874e-06
-3.19681e-07
-6.41404e-06
-3.17728e-07
-5.4579e-06
-3.1193e-07
-4.04919e-06
-2.38172e-07
-2.96683e-06
-2.63734e-07
-1.11135e-06
-1.40454e-07
-1.29859e-07
-5.10276e-05
-1.54905e-06
-6.35396e-05
-1.40128e-06
-5.95775e-05
-1.15262e-06
-5.60911e-05
-6.40402e-07
-5.16493e-05
-5.03155e-07
-4.67575e-05
-3.77148e-07
-4.56312e-05
-2.3811e-07
-5.01427e-05
-1.82474e-07
-6.26308e-05
-1.55794e-07
-5.56408e-05
-1.2441e-07
-5.41148e-05
-8.34924e-08
-5.56013e-05
-5.79141e-08
-5.00301e-05
-3.9303e-08
-5.40779e-05
-2.6817e-08
-6.25202e-05
-2.33519e-08
-5.12942e-05
-1.91723e-08
-4.16739e-05
-1.18792e-08
-4.34838e-05
-8.69867e-09
-4.8785e-05
-5.64581e-09
-5.71468e-05
-4.78686e-09
-5.12846e-05
-4.16225e-09
-4.76208e-05
-2.26793e-09
-5.12834e-05
-1.98323e-09
-4.762e-05
-1.2443e-09
-5.26324e-05
-9.32691e-10
-5.71435e-05
-8.2246e-10
-5.00004e-05
-5.10608e-10
-5.00003e-05
-4.0228e-10
-4.76193e-05
-2.70037e-10
-5.12822e-05
-1.65448e-10
-5.40542e-05
-1.45048e-10
-4.65117e-05
-8.41604e-11
-4.76191e-05
-6.57673e-11
-5.12821e-05
-2.99502e-11
-5.7143e-05
-9.46485e-12
-5.55557e-05
1.83174e-11
-5.55557e-05
3.72217e-11
-6.06062e-05
7.8137e-11
-6.25002e-05
1.03983e-10
-6.45164e-05
1.97763e-10
-5.26318e-05
2.20451e-10
-4.87808e-05
2.58806e-10
-5.71434e-05
4.30947e-10
-5.55562e-05
6.60188e-10
-5.00008e-05
7.67687e-10
-4.65126e-05
1.19893e-09
-4.6513e-05
1.24572e-09
-5.55578e-05
1.95533e-09
-5.00028e-05
3.13839e-09
-5.12859e-05
3.63767e-09
-6.45227e-05
6.19697e-09
-5.26389e-05
7.71586e-09
-4.54632e-05
9.42072e-09
-4.76314e-05
1.21756e-08
-5.00178e-05
1.88074e-08
-5.00242e-05
2.13053e-08
-5.26664e-05
2.94195e-08
-5.41027e-05
4.48458e-08
-4.88402e-05
5.98689e-08
-5.27189e-05
7.71993e-08
-5.41751e-05
1.03852e-07
-5.14356e-05
1.10159e-07
-5.57745e-05
1.56489e-07
-5.58355e-05
1.86895e-07
-4.79103e-05
2.55825e-07
-4.37736e-05
2.50313e-07
-5.03531e-05
2.3742e-07
-5.96488e-05
3.90838e-07
-6.40005e-05
6.09644e-07
-5.17458e-05
-1.58685e-06
-3.75485e-05
-2.37376e-06
-3.34847e-05
-1.77314e-06
-2.83657e-05
-1.47595e-06
-2.65577e-05
-1.0002e-06
-2.93359e-05
-1.00879e-06
-2.77072e-05
-8.95405e-07
-2.75232e-05
-7.19364e-07
-2.49544e-05
-7.92233e-07
-2.39332e-05
-5.81539e-07
-2.37962e-05
-7.51299e-07
-2.17013e-05
-5.76474e-07
-1.88249e-05
-6.23083e-07
-1.51583e-05
-4.39752e-07
-1.67965e-05
-4.40321e-07
-1.65428e-05
-5.63544e-07
-1.53796e-05
-4.20289e-07
-1.39294e-05
-4.83715e-07
-1.08684e-05
-3.60522e-07
-1.01488e-05
-3.26516e-07
-1.04497e-05
-3.51686e-07
-9.46244e-06
-3.68928e-07
-7.83479e-06
-3.13811e-07
-7.264e-06
-3.07353e-07
-6.08481e-06
-2.77e-07
-4.69811e-06
-2.26771e-07
-4.37853e-06
-2.07403e-07
-4.66043e-06
-2.72894e-07
-2.90725e-06
-2.29623e-07
-1.17245e-06
-1.19058e-07
-1.29144e-07
-5.05848e-05
-1.94257e-06
-5.61029e-05
-1.25895e-06
-5.03912e-05
-1.20412e-06
-4.47113e-05
-6.63867e-07
-5.28692e-05
-4.91264e-07
-5.14543e-05
-4.26844e-07
-4.77372e-05
-2.91222e-07
-5.27277e-05
-2.13662e-07
-5.41265e-05
-1.93482e-07
-6.06657e-05
-1.20503e-07
-5.4093e-05
-1.10339e-07
-4.65362e-05
-6.63088e-08
-4.44617e-05
-4.20865e-08
-4.54674e-05
-2.88943e-08
-5.26425e-05
-2.47716e-08
-6.06153e-05
-1.85933e-08
-6.66741e-05
-1.60181e-08
-5.40585e-05
-1.32935e-08
-4.87834e-05
-7.68492e-09
-5.71454e-05
-5.93987e-09
-5.55574e-05
-3.91438e-09
-5.40553e-05
-2.6055e-09
-5.12829e-05
-2.2684e-09
-4.87811e-05
-1.39626e-09
-5.40546e-05
-1.04544e-09
-5.12824e-05
-8.65078e-10
-5.40543e-05
-5.45683e-10
-5.40543e-05
-4.37439e-10
-4.44446e-05
-3.43187e-10
-4.34784e-05
-1.94498e-10
-4.34783e-05
-1.54279e-10
-5.12821e-05
-9.67916e-11
-5.12821e-05
-7.73232e-11
-5.00001e-05
-3.87392e-11
-5.88236e-05
-1.18139e-11
-4.76191e-05
1.87614e-11
-4.54546e-05
4.27751e-11
-4.54546e-05
7.87257e-11
-5.00001e-05
1.11371e-10
-5.12822e-05
1.80185e-10
-4.25533e-05
2.66008e-10
-4.65118e-05
3.1814e-10
-5.40544e-05
4.93772e-10
-5.2632e-05
6.94711e-10
-5.71435e-05
8.81002e-10
-5.26323e-05
1.59263e-09
-4.65125e-05
1.60575e-09
-5.2633e-05
2.14158e-09
-5.88256e-05
3.14255e-09
-6.0609e-05
4.63608e-09
-5.55593e-05
6.32434e-09
-5.55606e-05
9.11655e-09
-5.55625e-05
1.08712e-08
-5.71527e-05
1.74169e-08
-5.12941e-05
2.59868e-08
-4.44589e-05
2.48716e-08
-4.88024e-05
3.45032e-08
-5.40877e-05
5.2782e-08
-5.88744e-05
7.71577e-08
-5.41192e-05
1.00406e-07
-4.45192e-05
1.22973e-07
-4.35801e-05
1.49509e-07
-4.45884e-05
1.78925e-07
-5.02197e-05
2.62417e-07
-6.2857e-05
3.13264e-07
-5.7525e-05
3.16558e-07
-5.58513e-05
1.79808e-07
-5.12382e-05
-3.36744e-07
-4.46805e-05
-1.12504e-06
-4.44818e-05
-7.72729e-07
-3.77838e-05
-1.54945e-06
-3.17645e-05
-1.36218e-06
-3.05749e-05
-1.67254e-06
-2.4723e-05
-1.08541e-06
-2.6724e-05
-9.88346e-07
-2.54388e-05
-1.07081e-06
-2.37832e-05
-8.74658e-07
-2.21189e-05
-7.54416e-07
-2.0695e-05
-7.21317e-07
-2.02995e-05
-6.79511e-07
-1.772e-05
-5.8623e-07
-1.63528e-05
-5.82539e-07
-1.46573e-05
-5.46943e-07
-1.60862e-05
-4.64799e-07
-1.68443e-05
-6.49514e-07
-1.51329e-05
-4.89126e-07
-1.56333e-05
-5.44997e-07
-1.33446e-05
-4.73053e-07
-1.2575e-05
-4.5157e-07
-1.20866e-05
-4.73515e-07
-1.06788e-05
-4.10045e-07
-9.48353e-06
-3.88204e-07
-7.07083e-06
-3.31186e-07
-5.61825e-06
-2.55733e-07
-5.32817e-06
-2.74765e-07
-4.98697e-06
-2.89731e-07
-4.10392e-06
-3.11319e-07
-2.72988e-06
-2.35021e-07
-1.72923e-06
-2.13584e-07
-1.32681e-07
-5.14768e-05
-2.01169e-06
-4.89392e-05
-1.20045e-06
-5.01311e-05
-1.14066e-06
-4.26397e-05
-7.55148e-07
-4.26187e-05
-5.75238e-07
-4.76738e-05
-4.35664e-07
-4.76596e-05
-3.20692e-07
-5.26646e-05
-2.00459e-07
-5.4079e-05
-2.09424e-07
-5.12994e-05
-1.33307e-07
-5.88382e-05
-9.51671e-08
-4.87894e-05
-7.34782e-08
-4.16722e-05
-4.74089e-08
-4.44488e-05
-3.55664e-08
-4.6515e-05
-2.81019e-08
-4.87831e-05
-2.05788e-08
-5.88258e-05
-1.54767e-08
-6.4518e-05
-1.35266e-08
-6.06073e-05
-9.59542e-09
-4.87812e-05
-6.24552e-09
-4.16671e-05
-3.50281e-09
-4.54549e-05
-3.01352e-09
-4.76193e-05
-2.15242e-09
-4.34785e-05
-1.74585e-09
-4.54547e-05
-1.02754e-09
-4.65118e-05
-9.87551e-10
-4.25533e-05
-5.87102e-10
-5.00001e-05
-4.48728e-10
-5.12821e-05
-3.33783e-10
-4.65117e-05
-2.46457e-10
-4.76191e-05
-1.62221e-10
-4.54546e-05
-1.14188e-10
-5.26316e-05
-6.99636e-11
-6.06061e-05
-4.1785e-11
-5.26316e-05
-1.28208e-11
-4.76191e-05
1.97178e-11
-4.65117e-05
5.18876e-11
-4.65117e-05
7.901e-11
-4.44445e-05
1.19766e-10
-5.12821e-05
1.94331e-10
-5.71429e-05
3.03719e-10
-5.00001e-05
3.87424e-10
-5.00001e-05
5.62649e-10
-4.87806e-05
6.61226e-10
-5.40543e-05
9.50156e-10
-5.71432e-05
1.44337e-09
-4.76194e-05
2.08832e-09
-4.44449e-05
2.55248e-09
-4.65122e-05
3.58052e-09
-4.87813e-05
5.02583e-09
-5.55569e-05
6.50223e-09
-5.12838e-05
1.05441e-08
-5.2634e-05
1.02384e-08
-6.6671e-05
1.74739e-08
-5.55606e-05
2.52577e-08
-4.76252e-05
3.16766e-08
-5.00094e-05
4.09965e-08
-5.55708e-05
5.73525e-08
-5.40761e-05
9.27058e-08
-5.26639e-05
9.36827e-08
-5.56078e-05
1.60213e-07
-4.88516e-05
1.82819e-07
-5.27515e-05
2.30849e-07
-5.73477e-05
3.22623e-07
-4.78882e-05
4.03197e-07
-4.80451e-05
4.16027e-07
-5.63543e-05
4.19649e-07
-5.70048e-05
2.52393e-07
-4.83562e-05
-7.83226e-07
-4.10748e-05
-2.06497e-06
-3.6383e-05
-2.26507e-06
-3.66494e-05
-1.67877e-06
-3.99711e-05
-1.68782e-06
-3.22605e-05
-1.43143e-06
-3.01855e-05
-1.00545e-06
-3.48117e-05
-1.03224e-06
-2.55869e-05
-9.03497e-07
-2.28797e-05
-6.03016e-07
-2.21987e-05
-7.27403e-07
-1.7177e-05
-4.92938e-07
-1.75552e-05
-4.65749e-07
-1.93388e-05
-5.21375e-07
-1.67078e-05
-5.52991e-07
-1.54502e-05
-4.47695e-07
-1.55382e-05
-5.35631e-07
-1.34323e-05
-4.69329e-07
-1.20242e-05
-4.57037e-07
-1.12204e-05
-3.72192e-07
-1.14899e-05
-3.97278e-07
-1.0317e-05
-3.80714e-07
-8.9398e-06
-3.71575e-07
-7.64015e-06
-3.45786e-07
-6.64411e-06
-3.00349e-07
-6.52673e-06
-3.19266e-07
-6.9447e-06
-3.26346e-07
-6.03288e-06
-3.80623e-07
-4.00427e-06
-3.4254e-07
-2.48487e-06
-2.33474e-07
-1.60589e-06
-2.19529e-07
-1.50673e-07
-4.74383e-05
-1.84033e-06
-4.74641e-05
-1.46311e-06
-5.11476e-05
-1.13723e-06
-5.54426e-05
-7.44826e-07
-5.8733e-05
-6.27726e-07
-5.25711e-05
-4.38077e-07
-4.44066e-05
-2.77984e-07
-4.75892e-05
-1.90932e-07
-5.87964e-05
-1.99345e-07
-5.26138e-05
-1.37717e-07
-4.76072e-05
-9.05345e-08
-5.2622e-05
-5.87736e-08
-5.71353e-05
-4.85612e-08
-5.88178e-05
-3.55621e-08
-6.06018e-05
-2.53909e-08
-5.88205e-05
-1.907e-08
-5.88213e-05
-1.51281e-08
-6.24983e-05
-9.97003e-09
-5.71417e-05
-8.84924e-09
-4.76183e-05
-5.21545e-09
-5.12815e-05
-3.91433e-09
-5.40536e-05
-3.18445e-09
-5.55552e-05
-2.09823e-09
-5.40538e-05
-1.75526e-09
-5.40539e-05
-1.15263e-09
-5.71427e-05
-1.09574e-09
-5.4054e-05
-6.00234e-10
-4.87804e-05
-4.99917e-10
-5e-05
-3.25582e-10
-5.26316e-05
-2.53926e-10
-4.87805e-05
-1.4727e-10
-5e-05
-1.27221e-10
-4.54545e-05
-6.97908e-11
-5.26316e-05
-3.78089e-11
-6.06061e-05
-1.14869e-11
-5.55556e-05
1.78282e-11
-5e-05
4.5814e-11
-4.44444e-05
7.51363e-11
-5.26316e-05
1.31887e-10
-5.71428e-05
2.12012e-10
-5.26315e-05
2.88894e-10
-5.88235e-05
3.89023e-10
-5.26315e-05
5.20829e-10
-4.87804e-05
5.74464e-10
-5.12819e-05
1.00475e-09
-5.71426e-05
1.17773e-09
-6.66663e-05
1.93184e-09
-6.66661e-05
2.36942e-09
-6.66659e-05
3.60831e-09
-6.06051e-05
4.54262e-09
-5.88223e-05
6.94106e-09
-5.26301e-05
1.04112e-08
-4.65099e-05
1.1935e-08
-4.99975e-05
1.37402e-08
-5.71391e-05
2.36674e-08
-5.88186e-05
3.0707e-08
-5.40485e-05
4.33435e-08
-5.88165e-05
4.99161e-08
-5.26251e-05
8.45158e-08
-5.12772e-05
9.72609e-08
-5.2632e-05
1.82318e-07
-4.87934e-05
1.95717e-07
-4.65505e-05
2.85157e-07
-4.66053e-05
3.24715e-07
-4.89932e-05
6.00601e-07
-4.48479e-05
6.93463e-07
-5.36574e-05
9.96548e-07
-5.37567e-05
1.7335e-06
-4.71622e-05
-3.13719e-07
-4.9841e-05
-4.62945e-06
-4.42522e-05
-3.67301e-06
-3.05049e-05
-1.85466e-06
-2.96159e-05
-1.28016e-06
-3.07858e-05
-1.15954e-06
-2.73586e-05
-9.03282e-07
-2.49302e-05
-7.71073e-07
-2.48115e-05
-7.15809e-07
-2.41525e-05
-5.98687e-07
-2.08087e-05
-5.68268e-07
-1.78032e-05
-4.72293e-07
-1.75115e-05
-4.7296e-07
-1.82388e-05
-4.9818e-07
-1.92156e-05
-4.96738e-07
-1.88231e-05
-5.64604e-07
-1.82821e-05
-4.92274e-07
-1.73987e-05
-5.04621e-07
-1.35815e-05
-4.28458e-07
-1.08884e-05
-3.38767e-07
-9.95625e-06
-2.92582e-07
-1.03908e-05
-3.02773e-07
-1.13209e-05
-3.51607e-07
-9.39427e-06
-3.77991e-07
-7.98639e-06
-2.83697e-07
-6.8865e-06
-2.86636e-07
-5.88875e-06
-2.32336e-07
-6.60518e-06
-3.28008e-07
-4.50303e-06
-2.65116e-07
-2.55484e-06
-1.56158e-07
-1.42478e-06
-1.18565e-07
-6.15853e-08
-5.98973e-05
-1.84212e-06
-6.38806e-05
-1.68154e-06
-5.22199e-05
-1.05382e-06
-4.84877e-05
-6.89664e-07
-4.97743e-05
-4.90576e-07
-4.5302e-05
-3.58291e-07
-4.33704e-05
-2.68637e-07
-5.25355e-05
-1.63062e-07
-5.87447e-05
-1.47595e-07
-5.5501e-05
-1.00135e-07
-4.87454e-05
-7.5143e-08
-4.4421e-05
-5.23984e-08
-4.64937e-05
-4.13184e-08
-4.44319e-05
-2.68169e-08
-4.34693e-05
-1.87829e-08
-4.87731e-05
-1.43791e-08
-4.76138e-05
-1.2869e-08
-4.87765e-05
-7.88938e-09
-5.1279e-05
-7.52762e-09
-5.12798e-05
-4.78675e-09
-5.40523e-05
-3.50495e-09
-5.12809e-05
-2.37848e-09
-5.12812e-05
-1.66031e-09
-5.40534e-05
-1.18768e-09
-6.24994e-05
-1.19494e-09
-5.71425e-05
-9.32061e-10
-5.26313e-05
-5.83513e-10
-6.06059e-05
-4.25241e-10
-5.71427e-05
-3.086e-10
-4.7619e-05
-2.0463e-10
-5.26315e-05
-1.37803e-10
-5.55555e-05
-1.02374e-10
-5.26315e-05
-5.79605e-11
-5.4054e-05
-3.87952e-11
-4.7619e-05
-9.78574e-12
-4.25532e-05
1.55306e-11
-4.34782e-05
3.4813e-11
-5.4054e-05
6.24817e-11
-5.88235e-05
1.12179e-10
-5.88234e-05
1.70326e-10
-6.06059e-05
2.45765e-10
-5.12819e-05
3.50447e-10
-4.44442e-05
3.64383e-10
-4.87801e-05
5.35433e-10
-5.12816e-05
7.69683e-10
-4.76184e-05
9.15488e-10
-4.54537e-05
1.30869e-09
-4.54534e-05
1.92022e-09
-4.651e-05
2.44676e-09
-5.12796e-05
3.87529e-09
-6.4512e-05
5.44679e-09
-6.66608e-05
8.3634e-09
-5.26253e-05
9.95588e-09
-5.12737e-05
1.23634e-08
-5.40422e-05
2.09981e-08
-5.12669e-05
2.39968e-08
-4.76002e-05
3.23819e-08
-4.54307e-05
4.84035e-08
-5.12468e-05
7.52645e-08
-5.87719e-05
9.2538e-08
-6.05405e-05
1.49902e-07
-5.39871e-05
2.14688e-07
-4.87212e-05
2.53083e-07
-5.40147e-05
4.18653e-07
-6.06486e-05
5.96963e-07
-5.90302e-05
9.26678e-07
-5.59427e-05
1.43367e-06
-5.34136e-05
1.01097e-06
-5.12649e-05
-1.94684e-06
-3.90945e-05
-4.18803e-06
-3.62701e-05
-2.65452e-06
-4.05923e-05
-2.39764e-06
-3.12288e-05
-1.46394e-06
-2.48078e-05
-9.51696e-07
-2.33415e-05
-7.80929e-07
-2.56743e-05
-7.22923e-07
-2.22329e-05
-8.123e-07
-1.93284e-05
-5.68929e-07
-2.11828e-05
-6.21436e-07
-2.3162e-05
-6.52944e-07
-2.28019e-05
-5.89298e-07
-1.83935e-05
-6.53349e-07
-1.71197e-05
-4.58941e-07
-1.68253e-05
-5.16621e-07
-1.42178e-05
-4.8372e-07
-1.32827e-05
-4.2195e-07
-1.36186e-05
-4.12583e-07
-1.28682e-05
-4.5707e-07
-1.11499e-05
-3.7868e-07
-1.05622e-05
-4.05656e-07
-1.05971e-05
-3.76581e-07
-1.07833e-05
-4.05497e-07
-7.76866e-06
-3.64624e-07
-6.62598e-06
-2.87465e-07
-7.45195e-06
-3.68247e-07
-5.21948e-06
-3.82269e-07
-3.40259e-06
-2.18485e-07
-2.72424e-06
-2.21225e-07
-1.27307e-06
-1.57519e-07
-1.5115e-07
-5.76146e-05
-1.71494e-06
-5.78452e-05
-1.21736e-06
-5.48435e-05
-7.3129e-07
-5.21243e-05
-6.41967e-07
-4.9642e-05
-3.41057e-07
-5.68409e-05
-2.58042e-07
-4.98057e-05
-2.32744e-07
-4.24318e-05
-1.3015e-07
-4.43515e-05
-1.02164e-07
-4.43763e-05
-8.07477e-08
-4.87257e-05
-4.7517e-08
-5.55099e-05
-4.44375e-08
-4.99699e-05
-3.34601e-08
-4.44249e-05
-2.14355e-08
-4.54399e-05
-1.53122e-08
-5.12699e-05
-1.20971e-08
-5.40447e-05
-8.85799e-09
-5.71356e-05
-5.732e-09
-6.24942e-05
-5.01335e-09
-5.40504e-05
-3.47773e-09
-4.76167e-05
-2.68791e-09
-4.44428e-05
-1.72801e-09
-4.16656e-05
-1.20624e-09
-5.12811e-05
-8.25344e-10
-6.66657e-05
-7.50815e-10
-6.6666e-05
-6.15583e-10
-6.24995e-05
-4.63661e-10
-5.40538e-05
-3.00353e-10
-5.26314e-05
-1.78338e-10
-5.55554e-05
-1.34507e-10
-5.12819e-05
-1.14421e-10
-4.65116e-05
-7.64502e-11
-5.26315e-05
-4.53596e-11
-6.45161e-05
-2.90574e-11
-6.24999e-05
-8.0819e-12
-4.99999e-05
1.28706e-11
-4.34782e-05
2.63953e-11
-4.34782e-05
4.97985e-11
-4.99999e-05
6.58728e-11
-5.40539e-05
1.20379e-10
-5.55553e-05
1.42021e-10
-4.99997e-05
2.54617e-10
-4.76187e-05
2.70791e-10
-4.87799e-05
4.53968e-10
-4.25525e-05
5.73786e-10
-4.16658e-05
6.95805e-10
-4.87791e-05
1.02128e-09
-4.87786e-05
1.43174e-09
-5.12793e-05
2.00893e-09
-5.55514e-05
2.89824e-09
-5.12768e-05
4.07984e-09
-4.87737e-05
5.44228e-09
-4.761e-05
6.42891e-09
-5.404e-05
8.84221e-09
-5.26129e-05
1.58864e-08
-4.54326e-05
1.90875e-08
-5.12482e-05
2.10038e-08
-6.66068e-05
4.7008e-08
-5.54878e-05
5.37755e-08
-4.87e-05
6.31169e-08
-5.39343e-05
9.80666e-08
-4.86379e-05
1.74242e-07
-4.98136e-05
2.15614e-07
-4.97792e-05
4.15264e-07
-4.74125e-05
5.32648e-07
-6.04826e-05
1.0844e-06
-5.74702e-05
1.80338e-06
-4.89474e-05
6.93391e-07
-4.47611e-05
-3.25873e-06
-4.09898e-05
-3.5145e-06
-3.56986e-05
-2.36963e-06
-3.19559e-05
-1.71658e-06
-2.59446e-05
-1.14895e-06
-2.65451e-05
-7.87844e-07
-2.64155e-05
-9.12093e-07
-2.50042e-05
-6.85506e-07
-2.87652e-05
-7.84755e-07
-2.72975e-05
-7.44686e-07
-2.6227e-05
-7.55142e-07
-1.95124e-05
-6.13979e-07
-1.89878e-05
-4.43574e-07
-1.84805e-05
-6.06594e-07
-1.41908e-05
-4.12583e-07
-1.5596e-05
-4.28392e-07
-1.4951e-05
-4.89114e-07
-1.27859e-05
-3.90831e-07
-1.38835e-05
-4.03613e-07
-1.50829e-05
-4.30821e-07
-1.51543e-05
-5.00073e-07
-1.25402e-05
-4.79473e-07
-9.24407e-06
-3.63616e-07
-7.94862e-06
-2.94243e-07
-8.05e-06
-3.28387e-07
-7.75105e-06
-3.52798e-07
-7.39285e-06
-3.16528e-07
-5.52782e-06
-3.10988e-07
-3.46886e-06
-1.89863e-07
-2.70523e-06
-1.72257e-07
-1.75934e-06
-1.69067e-07
-9.30524e-08
-5.10014e-05
-1.17949e-06
-4.76434e-05
-7.37286e-07
-5.46016e-05
-4.35186e-07
-5.33742e-05
-2.9889e-07
-4.50362e-05
-2.1395e-07
-5.09367e-05
-1.44647e-07
-5.52818e-05
-1.09977e-07
-5.53551e-05
-6.87158e-08
-6.23349e-05
-5.82035e-08
-5.25298e-05
-4.13893e-08
-4.87114e-05
-2.94869e-08
-5.70836e-05
-2.10347e-08
-5.70995e-05
-1.6206e-08
-5.55247e-05
-1.21845e-08
-5.71196e-05
-8.46344e-09
-5.4038e-05
-5.89462e-09
-4.54446e-05
-4.11541e-09
-4.54473e-05
-3.23944e-09
-4.76135e-05
-2.71088e-09
-5.40494e-05
-1.69448e-09
-5.71393e-05
-1.58964e-09
-5.12797e-05
-9.08388e-10
-4.87789e-05
-6.49183e-10
-4.54534e-05
-4.75168e-10
-4.99991e-05
-3.56159e-10
-5.71421e-05
-2.60435e-10
-5.5555e-05
-2.43711e-10
-4.65113e-05
-1.38619e-10
-4.16665e-05
-8.96635e-11
-4.87803e-05
-6.31819e-11
-6.24998e-05
-6.19214e-11
-6.24999e-05
-4.66833e-11
-5.88234e-05
-2.58506e-11
-6.24999e-05
-1.36492e-11
-6.0606e-05
-3.29886e-12
-4.99999e-05
6.03519e-12
-4.99999e-05
1.63884e-11
-4.76189e-05
2.74741e-11
-4.54544e-05
3.69449e-11
-4.54544e-05
5.99842e-11
-4.76188e-05
7.46129e-11
-5.26312e-05
1.13726e-10
-5.2631e-05
1.45629e-10
-5.88227e-05
2.5267e-10
-5.55545e-05
3.79517e-10
-5.40526e-05
3.65884e-10
-4.99982e-05
6.11748e-10
-5.26289e-05
6.41033e-10
-5.40503e-05
1.08501e-09
-5.4049e-05
1.25456e-09
-5.88159e-05
2.34443e-09
-5.1273e-05
2.79333e-09
-4.54436e-05
3.47306e-09
-5.12651e-05
5.02248e-09
-6.05785e-05
7.92943e-09
-4.75893e-05
9.87147e-09
-5.12379e-05
1.27885e-08
-5.39899e-05
2.28888e-08
-4.34067e-05
2.38667e-08
-4.33787e-05
3.30003e-08
-4.98398e-05
6.18878e-08
-5.38103e-05
9.69343e-08
-5.22969e-05
1.32626e-07
-5.08274e-05
2.21399e-07
-5.34272e-05
4.73059e-07
-5.99343e-05
1.08124e-06
-5.17734e-05
2.44451e-06
-4.81995e-05
1.42419e-08
-4.45378e-05
-4.13978e-06
-3.54471e-05
-2.44938e-06
-3.35714e-05
-1.59851e-06
-3.06308e-05
-1.11639e-06
-2.76759e-05
-8.33934e-07
-2.63601e-05
-6.47727e-07
-2.63638e-05
-6.73501e-07
-2.25861e-05
-6.16261e-07
-2.20844e-05
-5.18561e-07
-2.50374e-05
-6.10917e-07
-2.14368e-05
-5.66275e-07
-1.74394e-05
-4.37444e-07
-1.71261e-05
-3.97506e-07
-1.76135e-05
-4.36061e-07
-1.74583e-05
-3.98197e-07
-1.66787e-05
-4.44746e-07
-1.44552e-05
-3.87664e-07
-1.31951e-05
-3.51759e-07
-1.19691e-05
-3.48573e-07
-1.2853e-05
-3.48671e-07
-1.46351e-05
-4.20372e-07
-1.21019e-05
-4.15739e-07
-9.5582e-06
-3.21022e-07
-9.02088e-06
-3.00619e-07
-8.93646e-06
-3.31432e-07
-6.64654e-06
-2.99277e-07
-4.79223e-06
-2.27944e-07
-4.72269e-06
-2.2956e-07
-4.95009e-06
-2.65284e-07
-3.32485e-06
-2.18947e-07
-1.57928e-06
-1.2542e-07
-5.66754e-08
-4.67267e-05
-5.55164e-05
-4.7806e-05
-5.1879e-05
-6.18537e-05
-5.36476e-05
-4.52052e-05
-4.52724e-05
-4.63753e-05
-5.11721e-05
-5.25489e-05
-4.64582e-05
-4.99579e-05
-4.99692e-05
-4.44244e-05
-4.25391e-05
-5.12697e-05
-6.45047e-05
-5.88159e-05
-5.55503e-05
-5.26279e-05
-4.54522e-05
-4.65099e-05
-5.12807e-05
-4.76181e-05
-5.26308e-05
-5.40535e-05
-4.54542e-05
-4.44442e-05
-4.99998e-05
-6.06059e-05
-5.71427e-05
-5.1282e-05
-4.54545e-05
-4.44444e-05
-5.4054e-05
-5.40539e-05
-4.87804e-05
-5.12819e-05
-5.12818e-05
-4.76188e-05
-4.44441e-05
-5.12815e-05
-6.45151e-05
-5.12809e-05
-4.65102e-05
-4.65097e-05
-4.25508e-05
-4.34749e-05
-4.87754e-05
-5.40463e-05
-4.87709e-05
-5.26174e-05
-5.5535e-05
-4.87557e-05
-5.12461e-05
-5.55017e-05
-4.87148e-05
-4.33963e-05
-5.24916e-05
-6.03755e-05
-4.85098e-05
-4.21985e-05
-4.69955e-05
-5.28606e-05
-5.05439e-05
-4.60911e-05
-4.2346e-05
-4.07116e-05
-3.11804e-05
-2.79335e-05
-2.55028e-05
-2.66641e-05
-3.05844e-05
-2.39822e-05
-1.82132e-05
-1.8242e-05
-1.82881e-05
-1.6139e-05
-1.74243e-05
-1.84533e-05
-1.48071e-05
-1.49697e-05
-1.6032e-05
-1.32962e-05
-1.2839e-05
-1.43109e-05
-1.13138e-05
-9.81207e-06
-9.34334e-06
-9.39108e-06
-9.65846e-06
-7.1875e-06
-6.35609e-06
-5.87341e-06
-4.0348e-06
-3.39827e-06
-2.47644e-06
-1.36687e-06
)
;

boundaryField
{
    inlet
    {
        type            fixedValue;
        value           uniform 0;
    }
    outlet
    {
        type            calculated;
        value           nonuniform List<scalar> 10(5.92708e-05 4.94253e-05 4.44741e-05 4.82183e-05 6.69357e-05 4.97983e-05 5.48565e-05 5.14261e-05 5.34483e-05 3.88803e-05);
    }
    walls
    {
        type            fixedValue;
        value           uniform 0;
    }
}


// ************************************************************************* //
