/*--------------------------------*- C++ -*----------------------------------*\
| =========                 |                                                 |
| \\      /  F ield         | foam-extend: Open Source CFD                    |
|  \\    /   O peration     | Version:     5.0                                |
|   \\  /    A nd           | Web:         http://www.foam-extend.org         |
|    \\/     M anipulation  |                                                 |
\*---------------------------------------------------------------------------*/
FoamFile
{
    version     2.0;
    format      ascii;
    class       volVectorField;
    location    "4000";
    object      U.gas;
}
// * * * * * * * * * * * * * * * * * * * * * * * * * * * * * * * * * * * * * //

dimensions      [0 1 -1 0 0 0 0];

internalField   nonuniform List<vector> 
1000
(
(0 0 0)
(0 0 0)
(0 0 0)
(0 0 0)
(0 0 0)
(0 0 0)
(0 0 0)
(0 0 0)
(0 0 0)
(0 0 0)
(0 0 0)
(0 0 0)
(0 0 0)
(0 0 0)
(0 0 0)
(0 0 0)
(0 0 0)
(0 0 0)
(0 0 0)
(0 0 0)
(0 0 0)
(0 0 0)
(0 0 0)
(0 0 0)
(0 0 0)
(0 0 0)
(0 0 0)
(0 0 0)
(0 0 0)
(0 0 0)
(0 0 0)
(0 0 0)
(0 0 0)
(0 0 0)
(0 0 0)
(0 0 0)
(0 0 0)
(0 0 0)
(0 0 0)
(0 0 0)
(0 0 0)
(0 0 0)
(0 0 0)
(0 0 0)
(0 0 0)
(0 0 0)
(0 0 0)
(0 0 0)
(0 0 0)
(0 0 0)
(0 0 0)
(0 0 0)
(0 0 0)
(0 0 0)
(0 0 0)
(0 0 0)
(0 0 0)
(0 0 0)
(0 0 0)
(0 0 0)
(0 0 0)
(0 0 0)
(0 0 0)
(0 0 0)
(0 0 0)
(0 7.48618e-41 0)
(0 2.33822e-19 -6.36306e-17)
(0 -4.18504e-08 -1.60705e-07)
(0 -0.00116547 -0.000102904)
(0 -0.00102992 -7.77083e-06)
(0 -0.000586343 -0.000128478)
(0 -0.00061879 -5.31133e-05)
(0 -0.000543492 -1.43725e-05)
(0 -0.000529059 -2.34666e-06)
(0 -0.000522421 1.17355e-06)
(0 -0.000509061 1.49364e-06)
(0 -0.000613035 1.7927e-06)
(0 -0.000537067 1.94384e-06)
(0 -0.000650854 2.09607e-06)
(0 -0.000590921 2.14119e-06)
(0 -0.000565473 2.16689e-06)
(0 -0.000654682 2.45634e-06)
(0 -0.000827449 2.15602e-06)
(0 -0.00056534 2.28268e-06)
(0 -0.000621182 2.68769e-06)
(0 -0.000620618 2.51599e-06)
(0 -0.000619025 2.15499e-06)
(0 -0.000616436 2.00315e-06)
(0 -0.000613801 2.53565e-06)
(0 -0.000556234 2.56538e-06)
(0 -0.000553607 2.76165e-06)
(0 -0.000505138 2.8077e-06)
(0 -0.000600311 2.28361e-06)
(0 -0.000740907 1.37226e-06)
(0 -0.000558819 1.83719e-06)
(0 -0.000609059 2.76303e-06)
(0 -0.000477063 2.80812e-06)
(0 -0.000561416 3.31273e-06)
(0 -0.000523297 1.50891e-06)
(0 -0.000590668 2.76117e-06)
(0 0 0)
(0 0 0)
(0 0 0)
(0 0 0)
(0 0 0)
(0 0 0)
(0 0 0)
(0 0 0)
(0 0 0)
(0 0 0)
(0 0 0)
(0 0 0)
(0 0 0)
(0 0 0)
(0 0 0)
(0 0 0)
(0 0 0)
(0 0 0)
(0 0 0)
(0 0 0)
(0 0 0)
(0 0 0)
(0 0 0)
(0 0 0)
(0 0 0)
(0 0 0)
(0 0 0)
(0 0 0)
(0 0 0)
(0 0 0)
(0 0 0)
(0 0 0)
(0 0 0)
(0 0 0)
(0 0 0)
(0 0 0)
(0 0 0)
(0 0 0)
(0 0 0)
(0 0 0)
(0 0 0)
(0 0 0)
(0 0 0)
(0 0 0)
(0 0 0)
(0 0 0)
(0 0 0)
(0 0 0)
(0 0 0)
(0 0 0)
(0 0 0)
(0 0 0)
(0 0 0)
(0 0 0)
(0 0 0)
(0 0 0)
(0 0 0)
(0 0 0)
(0 0 0)
(0 0 0)
(0 0 0)
(0 0 0)
(0 0 0)
(0 0 0)
(0 0 0)
(0 3.92409e-13 0)
(0 -0.000165071 -1.71898e-14)
(0 -0.00115317 2.19138e-09)
(0 -0.000839548 3.6906e-07)
(0 -0.000592684 3.58344e-06)
(0 -0.000814122 -2.35357e-05)
(0 -0.000791427 -2.86776e-05)
(0 -0.000918954 -2.15228e-05)
(0 -0.0008152 -7.9691e-06)
(0 -0.000916561 -3.05076e-07)
(0 -0.000575941 2.74779e-06)
(0 -0.000575181 3.37097e-06)
(0 -0.000626032 4.32288e-06)
(0 -0.000624777 3.81156e-06)
(0 -0.000652512 4.52851e-06)
(0 -0.000717791 4.57863e-06)
(0 -0.000903053 5.5517e-06)
(0 -0.000614408 3.04668e-06)
(0 -0.000837436 5.24926e-06)
(0 -0.00078348 6.10868e-06)
(0 -0.000697579 5.53525e-06)
(0 -0.000550571 4.84839e-06)
(0 -0.000547492 4.37036e-06)
(0 -0.000764602 5.87205e-06)
(0 -0.000678376 5.93865e-06)
(0 -0.00067126 6.37334e-06)
(0 -0.000838264 7.39554e-06)
(0 -0.000654176 4.74381e-06)
(0 -0.000534248 3.00262e-06)
(0 -0.000635167 3.74793e-06)
(0 -0.000787652 5.20365e-06)
(0 -0.000580443 6.53751e-06)
(0 -0.000754144 7.75674e-06)
(0 -0.000462304 3.44383e-06)
(0 -0.000663441 5.28222e-06)
(0 0 0)
(0 0 0)
(0 0 0)
(0 0 0)
(0 0 0)
(0 0 0)
(0 0 0)
(0 0 0)
(0 0 0)
(0 0 0)
(0 0 0)
(0 0 0)
(0 0 0)
(0 0 0)
(0 0 0)
(0 0 0)
(0 0 0)
(0 0 0)
(0 0 0)
(0 0 0)
(0 0 0)
(0 0 0)
(0 0 0)
(0 0 0)
(0 0 0)
(0 0 0)
(0 0 0)
(0 0 0)
(0 0 0)
(0 0 0)
(0 0 0)
(0 0 0)
(0 0 0)
(0 0 0)
(0 0 0)
(0 0 0)
(0 0 0)
(0 0 0)
(0 0 0)
(0 0 0)
(0 0 0)
(0 0 0)
(0 0 0)
(0 0 0)
(0 0 0)
(0 0 0)
(0 0 0)
(0 0 0)
(0 0 0)
(0 0 0)
(0 0 0)
(0 0 0)
(0 0 0)
(0 0 0)
(0 0 0)
(0 0 0)
(0 0 0)
(0 0 0)
(0 0 0)
(0 0 0)
(0 0 0)
(0 0 0)
(0 0 0)
(0 0 0)
(0 0 0)
(0 7.47476e-20 0)
(0 -1.34473e-07 -1.71264e-14)
(0 -0.00126581 1.00278e-07)
(0 -0.00100846 2.65149e-06)
(0 -0.000698223 1.10428e-05)
(0 -0.000556607 -6.1409e-06)
(0 -0.000617926 -1.3385e-05)
(0 -0.000641997 -1.1647e-05)
(0 -0.000575043 -6.68856e-06)
(0 -0.000724449 -3.30907e-06)
(0 -0.000762553 2.08568e-06)
(0 -0.000719713 3.57612e-06)
(0 -0.000848563 4.99189e-06)
(0 -0.000645284 3.83443e-06)
(0 -0.000895721 5.52616e-06)
(0 -0.000669948 3.73987e-06)
(0 -0.0008317 4.40544e-06)
(0 -0.000554288 3.41506e-06)
(0 -0.000601375 3.67849e-06)
(0 -0.000772613 6.2011e-06)
(0 -0.000622921 5.38754e-06)
(0 -0.000762317 8.06267e-06)
(0 -0.000560533 6.02895e-06)
(0 -0.000533362 5.17615e-06)
(0 -0.000576854 6.08758e-06)
(0 -0.000661111 6.8433e-06)
(0 -0.000542091 5.11185e-06)
(0 -0.000560543 4.96736e-06)
(0 -0.000579284 4.76754e-06)
(0 -0.000500431 4.17813e-06)
(0 -0.000493103 4.09752e-06)
(0 -0.000722782 7.26741e-06)
(0 -0.000707294 5.11727e-06)
(0 -0.000461905 5.072e-06)
(0 -0.000625497 3.8698e-06)
(0 0 0)
(0 0 0)
(0 0 0)
(0 0 0)
(0 0 0)
(0 0 0)
(0 0 0)
(0 0 0)
(0 0 0)
(0 0 0)
(0 0 0)
(0 0 0)
(0 0 0)
(0 0 0)
(0 0 0)
(0 0 0)
(0 0 0)
(0 0 0)
(0 0 0)
(0 0 0)
(0 0 0)
(0 0 0)
(0 0 0)
(0 0 0)
(0 0 0)
(0 0 0)
(0 0 0)
(0 0 0)
(0 0 0)
(0 0 0)
(0 0 0)
(0 0 0)
(0 0 0)
(0 0 0)
(0 0 0)
(0 0 0)
(0 0 0)
(0 0 0)
(0 0 0)
(0 0 0)
(0 0 0)
(0 0 0)
(0 0 0)
(0 0 0)
(0 0 0)
(0 0 0)
(0 0 0)
(0 0 0)
(0 0 0)
(0 0 0)
(0 0 0)
(0 0 0)
(0 0 0)
(0 0 0)
(0 0 0)
(0 0 0)
(0 0 0)
(0 0 0)
(0 0 0)
(0 0 0)
(0 0 0)
(0 0 0)
(0 0 0)
(0 0 0)
(0 0 0)
(0 1.02735e-14 0)
(0 -3.3009e-05 -4.37433e-16)
(0 -0.001174 1.18317e-09)
(0 -0.000857724 8.04136e-08)
(0 -0.000606796 1.38438e-06)
(0 -0.000686129 -6.77843e-06)
(0 -0.000570863 -7.48531e-06)
(0 -0.000809214 -8.50682e-06)
(0 -0.00058529 -3.3379e-06)
(0 -0.000668515 -2.56726e-06)
(0 -0.000777456 4.76451e-07)
(0 -0.000666522 2.13145e-06)
(0 -0.00077378 2.34804e-06)
(0 -0.000632088 3.31035e-06)
(0 -0.000768209 3.01717e-06)
(0 -0.000656461 3.09485e-06)
(0 -0.000654044 3.70363e-06)
(0 -0.000622555 4.82384e-06)
(0 -0.000593051 4.4074e-06)
(0 -0.000901512 7.02411e-06)
(0 -0.000673383 5.58795e-06)
(0 -0.000833723 7.03875e-06)
(0 -0.000777602 7.08229e-06)
(0 -0.000688742 6.89187e-06)
(0 -0.000807701 8.17598e-06)
(0 -0.000710535 6.98055e-06)
(0 -0.000742907 7.52999e-06)
(0 -0.000656572 6.39331e-06)
(0 -0.000513837 5.26219e-06)
(0 -0.000577422 7.01538e-06)
(0 -0.000627031 7.96017e-06)
(0 -0.000729802 6.29301e-06)
(0 -0.000602152 2.70445e-06)
(0 -0.000691341 5.31697e-06)
(0 -0.000593173 2.25471e-06)
(0 0 0)
(0 0 0)
(0 0 0)
(0 0 0)
(0 0 0)
(0 0 0)
(0 0 0)
(0 0 0)
(0 0 0)
(0 0 0)
(0 0 0)
(0 0 0)
(0 0 0)
(0 0 0)
(0 0 0)
(0 0 0)
(0 0 0)
(0 0 0)
(0 0 0)
(0 0 0)
(0 0 0)
(0 0 0)
(0 0 0)
(0 0 0)
(0 0 0)
(0 0 0)
(0 0 0)
(0 0 0)
(0 0 0)
(0 0 0)
(0 0 0)
(0 0 0)
(0 0 0)
(0 0 0)
(0 0 0)
(0 0 0)
(0 0 0)
(0 0 0)
(0 0 0)
(0 0 0)
(0 0 0)
(0 0 0)
(0 0 0)
(0 0 0)
(0 0 0)
(0 0 0)
(0 0 0)
(0 0 0)
(0 0 0)
(0 0 0)
(0 0 0)
(0 0 0)
(0 0 0)
(0 0 0)
(0 0 0)
(0 0 0)
(0 0 0)
(0 0 0)
(0 0 0)
(0 0 0)
(0 0 0)
(0 0 0)
(0 0 0)
(0 0 0)
(0 0 0)
(0 7.34277e-18 0)
(0 -9.67352e-07 -4.37519e-16)
(0 -0.00121773 7.36689e-09)
(0 -0.000921722 2.31543e-07)
(0 -0.000606195 1.4752e-06)
(0 -0.000575032 -2.84902e-06)
(0 -0.000632463 -5.37962e-06)
(0 -0.000831283 -9.29054e-06)
(0 -0.000833931 -4.8377e-06)
(0 -0.00064083 -1.91121e-06)
(0 -0.000892374 -4.41554e-07)
(0 -0.00089094 2.59956e-06)
(0 -0.000560578 2.49066e-06)
(0 -0.000836291 5.30856e-06)
(0 -0.000559793 3.38967e-06)
(0 -0.00055941 3.96798e-06)
(0 -0.000668447 5.45196e-06)
(0 -0.000739074 6.99933e-06)
(0 -0.000553333 5.69664e-06)
(0 -0.000732599 6.83854e-06)
(0 -0.000597727 6.17743e-06)
(0 -0.000622808 6.18233e-06)
(0 -0.000542527 5.33172e-06)
(0 -0.000644783 6.48027e-06)
(0 -0.000639122 6.4269e-06)
(0 -0.000603757 6.87064e-06)
(0 -0.000571825 6.90079e-06)
(0 -0.00054191 6.431e-06)
(0 -0.000558809 7.48412e-06)
(0 -0.000709096 8.63012e-06)
(0 -0.000787946 9.72374e-06)
(0 -0.000683642 5.99712e-06)
(0 -0.000518852 2.64862e-06)
(0 -0.000614555 1.24713e-06)
(0 -0.000593492 2.56475e-07)
(0 0 0)
(0 0 0)
(0 0 0)
(0 0 0)
(0 0 0)
(0 0 0)
(0 0 0)
(0 0 0)
(0 0 0)
(0 0 0)
(0 0 0)
(0 0 0)
(0 0 0)
(0 0 0)
(0 0 0)
(0 0 0)
(0 0 0)
(0 0 0)
(0 0 0)
(0 0 0)
(0 0 0)
(0 0 0)
(0 0 0)
(0 0 0)
(0 0 0)
(0 0 0)
(0 0 0)
(0 0 0)
(0 0 0)
(0 0 0)
(0 0 0)
(0 0 0)
(0 0 0)
(0 0 0)
(0 0 0)
(0 0 0)
(0 0 0)
(0 0 0)
(0 0 0)
(0 0 0)
(0 0 0)
(0 0 0)
(0 0 0)
(0 0 0)
(0 0 0)
(0 0 0)
(0 0 0)
(0 0 0)
(0 0 0)
(0 0 0)
(0 0 0)
(0 0 0)
(0 0 0)
(0 0 0)
(0 0 0)
(0 0 0)
(0 0 0)
(0 0 0)
(0 0 0)
(0 0 0)
(0 0 0)
(0 0 0)
(0 0 0)
(0 0 0)
(0 0 0)
(0 1.91904e-18 -3.73516e-31)
(0 -6.17014e-07 -4.57785e-12)
(0 -0.00124007 -1.19764e-07)
(0 -0.000958292 -1.65823e-07)
(0 -0.000633212 -2.43692e-05)
(0 -0.000705364 -2.8666e-05)
(0 -0.000557505 -1.12374e-05)
(0 -0.000577149 -7.59955e-06)
(0 -0.000702397 -6.04924e-06)
(0 -0.000705752 -2.56861e-06)
(0 -0.00064175 -4.12852e-07)
(0 -0.000675154 1.81887e-06)
(0 -0.000710173 3.75282e-06)
(0 -0.000708987 4.56545e-06)
(0 -0.00058635 5.0855e-06)
(0 -0.000585369 5.60599e-06)
(0 -0.000638914 5.97012e-06)
(0 -0.000702543 5.99798e-06)
(0 -0.00077951 7.71955e-06)
(0 -0.000731318 6.53912e-06)
(0 -0.000815426 7.82154e-06)
(0 -0.000719323 7.51521e-06)
(0 -0.000559997 6.95413e-06)
(0 -0.000533231 6.46686e-06)
(0 -0.000552032 6.80125e-06)
(0 -0.000697032 8.67193e-06)
(0 -0.000729205 1.00256e-05)
(0 -0.000557533 7.90354e-06)
(0 -0.000669391 8.7378e-06)
(0 -0.000495572 6.12548e-06)
(0 -0.000727954 7.56896e-06)
(0 -0.000714614 4.70594e-06)
(0 -0.000468548 4.01905e-06)
(0 -0.000457513 2.6116e-06)
(0 -0.000465039 3.3847e-06)
(0 0 0)
(0 0 0)
(0 0 0)
(0 0 0)
(0 0 0)
(0 0 0)
(0 0 0)
(0 0 0)
(0 0 0)
(0 0 0)
(0 0 0)
(0 0 0)
(0 0 0)
(0 0 0)
(0 0 0)
(0 0 0)
(0 0 0)
(0 0 0)
(0 0 0)
(0 0 0)
(0 0 0)
(0 0 0)
(0 0 0)
(0 0 0)
(0 0 0)
(0 0 0)
(0 0 0)
(0 0 0)
(0 0 0)
(0 0 0)
(0 0 0)
(0 0 0)
(0 0 0)
(0 0 0)
(0 0 0)
(0 0 0)
(0 0 0)
(0 0 0)
(0 0 0)
(0 0 0)
(0 0 0)
(0 0 0)
(0 0 0)
(0 0 0)
(0 0 0)
(0 0 0)
(0 0 0)
(0 0 0)
(0 0 0)
(0 0 0)
(0 0 0)
(0 0 0)
(0 0 0)
(0 0 0)
(0 0 0)
(0 0 0)
(0 0 0)
(0 0 0)
(0 0 0)
(0 0 0)
(0 0 0)
(0 0 0)
(0 0 0)
(0 0 0)
(0 1.04205e-22 0)
(0 -4.93573e-09 -6.47444e-24)
(0 -0.00128742 -1.49784e-11)
(0 -0.00105709 2.96356e-08)
(0 -0.000742283 -3.36567e-07)
(0 -0.000604193 -2.35428e-05)
(0 -0.000583972 -2.37197e-05)
(0 -0.000898819 -2.20581e-05)
(0 -0.000760032 -9.83709e-06)
(0 -0.000657396 -4.76357e-06)
(0 -0.000579681 -6.72857e-07)
(0 -0.000694671 6.88136e-07)
(0 -0.000770343 3.03358e-06)
(0 -0.000579476 3.46727e-06)
(0 -0.000660529 4.89945e-06)
(0 -0.000767002 6.48391e-06)
(0 -0.000856661 7.06051e-06)
(0 -0.000801341 7.29235e-06)
(0 -0.000617101 4.80534e-06)
(0 -0.000792024 6.20747e-06)
(0 -0.000638685 5.43787e-06)
(0 -0.000635083 5.07628e-06)
(0 -0.000630809 6.01012e-06)
(0 -0.000771796 9.39336e-06)
(0 -0.000620574 8.62785e-06)
(0 -0.000679222 9.41867e-06)
(0 -0.000639145 7.48658e-06)
(0 -0.000839822 8.76728e-06)
(0 -0.000731351 8.70981e-06)
(0 -0.000534121 6.18501e-06)
(0 -0.000752117 8.62906e-06)
(0 -0.000788562 7.04075e-06)
(0 -0.000487344 3.36517e-06)
(0 -0.000633196 6.3635e-06)
(0 -0.000506323 6.0582e-06)
(0 -0.000666865 7.00292e-06)
(0 0 0)
(0 0 0)
(0 0 0)
(0 0 0)
(0 0 0)
(0 0 0)
(0 0 0)
(0 0 0)
(0 0 0)
(0 0 0)
(0 0 0)
(0 0 0)
(0 0 0)
(0 0 0)
(0 0 0)
(0 0 0)
(0 0 0)
(0 0 0)
(0 0 0)
(0 0 0)
(0 0 0)
(0 0 0)
(0 0 0)
(0 0 0)
(0 0 0)
(0 0 0)
(0 0 0)
(0 0 0)
(0 0 0)
(0 0 0)
(0 0 0)
(0 0 0)
(0 0 0)
(0 0 0)
(0 0 0)
(0 0 0)
(0 0 0)
(0 0 0)
(0 0 0)
(0 0 0)
(0 0 0)
(0 0 0)
(0 0 0)
(0 0 0)
(0 0 0)
(0 0 0)
(0 0 0)
(0 0 0)
(0 0 0)
(0 0 0)
(0 0 0)
(0 0 0)
(0 0 0)
(0 0 0)
(0 0 0)
(0 0 0)
(0 0 0)
(0 0 0)
(0 0 0)
(0 0 0)
(0 0 0)
(0 0 0)
(0 0 0)
(0 0 0)
(0 1.82776e-18 0)
(0 -4.8471e-07 -4.15209e-19)
(0 -0.00124425 6.22753e-12)
(0 -0.000968221 9.16568e-08)
(0 -0.000653092 -4.20118e-06)
(0 -0.000642926 -2.31299e-05)
(0 -0.000662639 -2.18813e-05)
(0 -0.000718002 -1.64115e-05)
(0 -0.000662174 -7.5511e-06)
(0 -0.000585991 -2.0154e-06)
(0 -0.000874178 1.14722e-06)
(0 -0.0006109 1.30114e-06)
(0 -0.000929488 2.54268e-06)
(0 -0.000817065 4.86012e-06)
(0 -0.000920122 6.28191e-06)
(0 -0.000808329 5.39178e-06)
(0 -0.000571897 3.95131e-06)
(0 -0.000907176 7.04918e-06)
(0 -0.000566711 4.85289e-06)
(0 -0.000588655 5.20606e-06)
(0 -0.000790573 7.19405e-06)
(0 -0.000582164 5.37285e-06)
(0 -0.000663538 6.57241e-06)
(0 -0.000772424 7.97747e-06)
(0 -0.000865144 1.06417e-05)
(0 -0.00085515 1.06461e-05)
(0 -0.000668526 7.63136e-06)
(0 -0.000547106 5.62822e-06)
(0 -0.000620947 6.85453e-06)
(0 -0.000679333 7.52298e-06)
(0 -0.000706166 5.16719e-06)
(0 -0.000784196 4.70499e-06)
(0 -0.000503952 5.6225e-06)
(0 -0.000515308 6.3738e-06)
(0 -0.000611851 7.86483e-06)
(0 -0.000487356 4.76884e-06)
(0 0 0)
(0 0 0)
(0 0 0)
(0 0 0)
(0 0 0)
(0 0 0)
(0 0 0)
(0 0 0)
(0 0 0)
(0 0 0)
(0 0 0)
(0 0 0)
(0 0 0)
(0 0 0)
(0 0 0)
(0 0 0)
(0 0 0)
(0 0 0)
(0 0 0)
(0 0 0)
(0 0 0)
(0 0 0)
(0 0 0)
(0 0 0)
(0 0 0)
(0 0 0)
(0 0 0)
(0 0 0)
(0 0 0)
(0 0 0)
(0 0 0)
(0 0 0)
(0 0 0)
(0 0 0)
(0 0 0)
(0 0 0)
(0 0 0)
(0 0 0)
(0 0 0)
(0 0 0)
(0 0 0)
(0 0 0)
(0 0 0)
(0 0 0)
(0 0 0)
(0 0 0)
(0 0 0)
(0 0 0)
(0 0 0)
(0 0 0)
(0 0 0)
(0 0 0)
(0 0 0)
(0 0 0)
(0 0 0)
(0 0 0)
(0 0 0)
(0 0 0)
(0 0 0)
(0 0 0)
(0 0 0)
(0 0 0)
(0 0 0)
(0 0 0)
(0 1.21708e-14 -3.28258e-25)
(0 -3.23609e-05 -3.89441e-10)
(0 -0.0011959 -1.65966e-07)
(0 -0.000888298 -1.09238e-07)
(0 -0.000629077 -3.06642e-05)
(0 -0.00058405 -2.47412e-05)
(0 -0.000674736 -1.87003e-05)
(0 -0.000692744 -1.11433e-05)
(0 -0.00070175 -4.33466e-06)
(0 -0.000673638 8.90586e-07)
(0 -0.000745994 1.9263e-06)
(0 -0.000746184 1.52904e-06)
(0 -0.000616694 9.46439e-07)
(0 -0.000829198 2.75914e-06)
(0 -0.000825945 3.18752e-06)
(0 -0.000667121 3.19385e-06)
(0 -0.000607296 4.61383e-06)
(0 -0.000730771 4.76355e-06)
(0 -0.000690389 5.35525e-06)
(0 -0.000805232 7.07868e-06)
(0 -0.000680724 5.72909e-06)
(0 -0.000675501 5.7606e-06)
(0 -0.000638319 6.18948e-06)
(0 -0.000633224 5.58048e-06)
(0 -0.000875318 6.56966e-06)
(0 -0.000865264 6.73315e-06)
(0 -0.000675975 5.94139e-06)
(0 -0.000634166 6.89039e-06)
(0 -0.000734875 7.27511e-06)
(0 -0.000723908 5.51408e-06)
(0 -0.000507184 3.78601e-06)
(0 -0.000543839 2.51811e-06)
(0 -0.000776979 6.11248e-06)
(0 -0.000756574 7.18836e-06)
(0 -0.000553108 5.58453e-06)
(0 -0.00051009 8.00792e-06)
(0 0 0)
(0 0 0)
(0 0 0)
(0 0 0)
(0 0 0)
(0 0 0)
(0 0 0)
(0 0 0)
(0 0 0)
(0 0 0)
(0 0 0)
(0 0 0)
(0 0 0)
(0 0 0)
(0 0 0)
(0 0 0)
(0 0 0)
(0 0 0)
(0 0 0)
(0 0 0)
(0 0 0)
(0 0 0)
(0 0 0)
(0 0 0)
(0 0 0)
(0 0 0)
(0 0 0)
(0 0 0)
(0 0 0)
(0 0 0)
(0 0 0)
(0 0 0)
(0 0 0)
(0 0 0)
(0 0 0)
(0 0 0)
(0 0 0)
(0 0 0)
(0 0 0)
(0 0 0)
(0 0 0)
(0 0 0)
(0 0 0)
(0 0 0)
(0 0 0)
(0 0 0)
(0 0 0)
(0 0 0)
(0 0 0)
(0 0 0)
(0 0 0)
(0 0 0)
(0 0 0)
(0 0 0)
(0 0 0)
(0 0 0)
(0 0 0)
(0 0 0)
(0 0 0)
(0 0 0)
(0 0 0)
(0 0 0)
(0 0 0)
(0 1.1118e-18 0)
(0 -3.9874e-07 -3.28258e-25)
(0 -0.00125435 -3.20876e-12)
(0 -0.000989139 -2.01401e-09)
(0 -0.000678757 -1.73576e-08)
(0 -0.000729856 -1.37827e-05)
(0 -0.00067829 -1.18645e-05)
(0 -0.000711614 -7.33184e-06)
(0 -0.000725418 -3.88606e-06)
(0 -0.00073022 -1.23289e-06)
(0 -0.000953796 1.3505e-06)
(0 -0.00101448 1.78262e-06)
(0 -0.000663727 3.84551e-07)
(0 -0.000660877 5.51098e-07)
(0 -0.000755406 7.77842e-07)
(0 -0.000716754 8.59941e-07)
(0 -0.000651137 1.23291e-06)
(0 -0.00098676 3.51196e-06)
(0 -0.000735577 2.04453e-06)
(0 -0.000694363 2.02716e-06)
(0 -0.000847787 2.85817e-06)
(0 -0.000839303 3.09008e-06)
(0 -0.000642505 2.16927e-06)
(0 -0.000927417 4.20372e-06)
(0 -0.000808794 3.34243e-06)
(0 -0.000647732 1.60611e-06)
(0 -0.0007064 1.8169e-06)
(0 -0.00066211 2.2656e-06)
(0 -0.000866544 4.20698e-06)
(0 -0.00075295 3.00706e-06)
(0 -0.000573068 1.5867e-06)
(0 -0.000820798 4.01561e-06)
(0 -0.000550087 1.6091e-06)
(0 -0.000590265 1.12967e-06)
(0 -0.000605852 1.36831e-06)
(0 -0.000587514 2.53942e-06)
(0 -0.000666801 5.7874e-06)
)
;

boundaryField
{
    inlet
    {
        type            fixedValue;
        value           uniform (0 -0.0005 0);
    }
    outlet
    {
        type            fluxCorrectedVelocity;
        phi             phi.gas;
        rho             rho.gas;
        value           uniform (0 0 0);
    }
    walls
    {
        type            fixedValue;
        value           uniform (0 0 0);
    }
}


// ************************************************************************* //
