/*--------------------------------*- C++ -*----------------------------------*\
| =========                 |                                                 |
| \\      /  F ield         | foam-extend: Open Source CFD                    |
|  \\    /   O peration     | Version:     5.0                                |
|   \\  /    A nd           | Web:         http://www.foam-extend.org         |
|    \\/     M anipulation  |                                                 |
\*---------------------------------------------------------------------------*/
FoamFile
{
    version     2.0;
    format      ascii;
    class       volVectorField;
    location    "4000";
    object      U.oil;
}
// * * * * * * * * * * * * * * * * * * * * * * * * * * * * * * * * * * * * * //

dimensions      [0 1 -1 0 0 0 0];

internalField   nonuniform List<vector> 
1000
(
(0 -0.000585827 -6.88035e-06)
(0 -0.000647053 -4.26243e-06)
(0 -0.000465555 -1.92867e-06)
(0 -0.000535336 -1.49445e-06)
(0 -0.000440139 -8.6045e-07)
(0 -0.000593489 -8.29596e-07)
(0 -0.000629065 -6.35805e-07)
(0 -0.000669832 -4.92465e-07)
(0 -0.000557484 -2.99103e-07)
(0 -0.00050127 -1.96601e-07)
(0 -0.000500929 -1.4375e-07)
(0 -0.00062585 -1.31469e-07)
(0 -0.00052684 -8.10318e-08)
(0 -0.000555961 -6.26169e-08)
(0 -0.000555852 -4.58456e-08)
(0 -0.000454723 -2.74651e-08)
(0 -0.000416786 -1.8435e-08)
(0 -0.000454641 -1.47262e-08)
(0 -0.000666769 -1.58154e-08)
(0 -0.000434832 -7.55269e-09)
(0 -0.000588284 -7.48217e-09)
(0 -0.000416692 -3.88052e-09)
(0 -0.000526339 -3.58865e-09)
(0 -0.000555574 -2.77277e-09)
(0 -0.000666683 -2.43471e-09)
(0 -0.000526325 -1.40558e-09)
(0 -0.000434788 -8.48058e-10)
(0 -0.000555561 -7.89666e-10)
(0 -0.000454549 -4.68822e-10)
(0 -0.000434785 -3.22781e-10)
(0 -0.000476192 -2.50516e-10)
(0 -0.000500002 -1.80652e-10)
(0 -0.000454547 -1.05427e-10)
(0 -0.000454547 -5.69684e-11)
(0 -0.000526317 -1.63428e-11)
(0 -0.000416668 2.50498e-11)
(0 -0.000416668 6.54575e-11)
(0 -0.000434784 1.17115e-10)
(0 -0.000625002 2.54935e-10)
(0 -0.000526318 3.08538e-10)
(0 -0.000555559 4.56531e-10)
(0 -0.00058824 6.69102e-10)
(0 -0.000526321 8.23233e-10)
(0 -0.000476197 1.02061e-09)
(0 -0.00050001 1.46555e-09)
(0 -0.00052633 2.1073e-09)
(0 -0.000476208 2.60243e-09)
(0 -0.000666699 4.97001e-09)
(0 -0.000625042 6.35205e-09)
(0 -0.000454587 6.29349e-09)
(0 -0.000434836 8.1938e-09)
(0 -0.000555649 1.42345e-08)
(0 -0.000434882 1.5123e-08)
(0 -0.000500155 2.35624e-08)
(0 -0.000666947 4.24521e-08)
(0 -0.000555872 4.76387e-08)
(0 -0.000625482 7.18456e-08)
(0 -0.000435234 6.66149e-08)
(0 -0.000417248 8.4473e-08)
(0 -0.000417443 1.10806e-07)
(0 -0.000455671 1.5705e-07)
(0 -0.000477746 2.12028e-07)
(0 -0.000478231 2.73218e-07)
(0 -0.000457098 3.44586e-07)
(0 -0.000671645 7.28171e-07)
(0 -0.000421029 7.96257e-07)
(0 -0.000484205 2.11865e-06)
(0 -0.000517341 6.70143e-06)
(0 -0.000674693 1.96413e-05)
(0 -0.000742017 1.93694e-06)
(0 -0.00050729 -1.52438e-05)
(0 -0.000673459 -1.67417e-05)
(0 -0.000438016 -7.29123e-06)
(0 -0.000344982 -4.09282e-06)
(0 -0.000293178 -2.40719e-06)
(0 -0.000255442 -2.23791e-06)
(0 -0.000285414 -2.64261e-06)
(0 -0.000232235 -2.03424e-06)
(0 -0.000265567 -2.5402e-06)
(0 -0.000227044 -2.12621e-06)
(0 -0.000204384 -1.93801e-06)
(0 -0.000224058 -2.23559e-06)
(0 -0.000270279 -3.1461e-06)
(0 -0.000173476 -1.77587e-06)
(0 -0.000179442 -1.89581e-06)
(0 -0.000168417 -1.92172e-06)
(0 -0.000157357 -1.96968e-06)
(0 -0.000146312 -1.89518e-06)
(0 -0.000135517 -1.64277e-06)
(0 -0.000112978 -1.39268e-06)
(0 -0.000102663 -1.30119e-06)
(0 -8.41123e-05 -1.09217e-06)
(0 -8.98886e-05 -1.50183e-06)
(0 -0.000100398 -1.98062e-06)
(0 -6.599e-05 -1.19231e-06)
(0 -6.17113e-05 -1.099e-06)
(0 -3.84347e-05 -7.48691e-07)
(0 -3.42279e-05 -7.96127e-07)
(0 -2.06626e-05 -8.05543e-07)
(0 -1.01869e-05 -4.42759e-07)
(0 -0.000492597 -1.34514e-05)
(0 -0.000489116 -8.31989e-06)
(0 -0.000536969 -6.08209e-06)
(0 -0.000634297 -4.9845e-06)
(0 -0.000673928 -3.7636e-06)
(0 -0.000559983 -2.25291e-06)
(0 -0.000670555 -1.95828e-06)
(0 -0.000590746 -1.25754e-06)
(0 -0.000417969 -6.50012e-07)
(0 -0.000556827 -6.334e-07)
(0 -0.000455307 -3.79067e-07)
(0 -0.000500613 -3.05145e-07)
(0 -0.000500449 -2.23369e-07)
(0 -0.000588622 -1.92392e-07)
(0 -0.000555823 -1.33041e-07)
(0 -0.000454706 -7.97036e-08)
(0 -0.000588387 -7.55275e-08)
(0 -0.000555661 -5.22325e-08)
(0 -0.000526389 -3.62342e-08)
(0 -0.000416709 -2.10047e-08)
(0 -0.000434815 -1.60489e-08)
(0 -0.000555586 -1.50149e-08)
(0 -0.000526337 -1.04141e-08)
(0 -0.000666686 -9.65565e-09)
(0 -0.000500011 -5.29898e-09)
(0 -0.000588245 -4.55874e-09)
(0 -0.000476196 -2.6954e-09)
(0 -0.000476195 -1.96425e-09)
(0 -0.000434785 -1.30144e-09)
(0 -0.000476193 -1.02607e-09)
(0 -0.000416668 -6.36314e-10)
(0 -0.000526317 -5.52159e-10)
(0 -0.000625002 -4.21133e-10)
(0 -0.000476192 -1.73599e-10)
(0 -0.000526317 -4.7933e-11)
(0 -0.000434784 7.53919e-11)
(0 -0.000500001 2.2737e-10)
(0 -0.000500001 3.90229e-10)
(0 -0.000500002 5.91203e-10)
(0 -0.000526318 8.94666e-10)
(0 -0.000625003 1.48961e-09)
(0 -0.00055556 1.83315e-09)
(0 -0.000416671 1.89085e-09)
(0 -0.000476197 2.96147e-09)
(0 -0.000454553 3.86642e-09)
(0 -0.000588249 6.83581e-09)
(0 -0.000476206 7.55438e-09)
(0 -0.000625028 1.35276e-08)
(0 -0.00050003 1.47565e-08)
(0 -0.000526359 2.11666e-08)
(0 -0.000500056 2.7379e-08)
(0 -0.000588325 4.38115e-08)
(0 -0.000588357 5.95087e-08)
(0 -0.000416784 5.71502e-08)
(0 -0.000454719 8.43251e-08)
(0 -0.000625324 1.56323e-07)
(0 -0.000667136 2.23868e-07)
(0 -0.000500476 2.24193e-07)
(0 -0.00043534 2.58493e-07)
(0 -0.000417384 3.25596e-07)
(0 -0.000626435 6.35228e-07)
(0 -0.000557243 7.26131e-07)
(0 -0.00043651 7.24111e-07)
(0 -0.000478618 1.01164e-06)
(0 -0.000670876 1.86146e-06)
(0 -0.000419631 1.67236e-06)
(0 -0.000670143 4.53884e-06)
(0 -0.000430444 6.05058e-06)
(0 -0.000549633 1.73191e-05)
(0 -0.000382759 2.9115e-06)
(0 -0.000530472 -4.2246e-05)
(0 -0.000428709 -3.59424e-05)
(0 -0.000448034 -2.68938e-05)
(0 -0.000364157 -1.53905e-05)
(0 -0.00038462 -1.11345e-05)
(0 -0.000221537 -5.51443e-06)
(0 -0.000205469 -5.22378e-06)
(0 -0.000210346 -5.26915e-06)
(0 -0.000198121 -5.44799e-06)
(0 -0.000195963 -5.33979e-06)
(0 -0.000205086 -5.94751e-06)
(0 -0.000247799 -7.44825e-06)
(0 -0.000159162 -5.29062e-06)
(0 -0.000207329 -6.56126e-06)
(0 -0.000184794 -5.68017e-06)
(0 -0.000155616 -4.99292e-06)
(0 -0.000114201 -3.75691e-06)
(0 -0.000104901 -3.79324e-06)
(0 -0.000137487 -5.13253e-06)
(0 -0.000113295 -4.21434e-06)
(0 -0.000103371 -3.93251e-06)
(0 -0.000120039 -4.86433e-06)
(0 -8.5089e-05 -3.82624e-06)
(0 -6.0865e-05 -3.08902e-06)
(0 -6.31204e-05 -3.3666e-06)
(0 -6.87412e-05 -3.67435e-06)
(0 -4.14926e-05 -2.07685e-06)
(0 -4.35991e-05 -2.54479e-06)
(0 -1.68437e-05 -1.43387e-06)
(0 -1.01338e-05 -1.24636e-06)
(0 -0.00044423 -1.43056e-05)
(0 -0.000599172 -1.36844e-05)
(0 -0.000676483 -1.10226e-05)
(0 -0.000532226 -6.24208e-06)
(0 -0.000593177 -5.04243e-06)
(0 -0.000457374 -2.83084e-06)
(0 -0.000478374 -2.1616e-06)
(0 -0.000436248 -1.44135e-06)
(0 -0.00058969 -1.42576e-06)
(0 -0.000667875 -1.1822e-06)
(0 -0.000476823 -6.18037e-07)
(0 -0.000625608 -5.93828e-07)
(0 -0.000500356 -3.47817e-07)
(0 -0.000500261 -2.54672e-07)
(0 -0.00058846 -2.19386e-07)
(0 -0.000666853 -1.82064e-07)
(0 -0.000416752 -8.3323e-08)
(0 -0.000416729 -6.10137e-08)
(0 -0.000454596 -4.8739e-08)
(0 -0.000526358 -4.13238e-08)
(0 -0.000625037 -3.59317e-08)
(0 -0.000434802 -1.83016e-08)
(0 -0.000526333 -1.62196e-08)
(0 -0.000500012 -1.12788e-08)
(0 -0.000454553 -7.50272e-09)
(0 -0.000625008 -7.54385e-09)
(0 -0.000526321 -4.63994e-09)
(0 -0.000476194 -3.05934e-09)
(0 -0.000526319 -2.45383e-09)
(0 -0.000434784 -1.45929e-09)
(0 -0.000625002 -1.48689e-09)
(0 -0.000476192 -7.78382e-10)
(0 -0.000454546 -4.77374e-10)
(0 -0.000500001 -2.8434e-10)
(0 -0.000526317 -7.51783e-11)
(0 -0.000625001 1.68113e-10)
(0 -0.000500001 3.5354e-10)
(0 -0.000625001 7.58953e-10)
(0 -0.000588237 1.08255e-09)
(0 -0.000666669 1.76421e-09)
(0 -0.000625003 2.31939e-09)
(0 -0.000454548 2.33566e-09)
(0 -0.00052632 3.71994e-09)
(0 -0.000625007 6.05463e-09)
(0 -0.000500007 6.62596e-09)
(0 -0.00050001 9.05382e-09)
(0 -0.000434794 1.075e-08)
(0 -0.000500018 1.68712e-08)
(0 -0.00062503 2.87663e-08)
(0 -0.000416694 2.61448e-08)
(0 -0.000666726 5.6992e-08)
(0 -0.000625076 7.2732e-08)
(0 -0.000454621 7.19245e-08)
(0 -0.000454648 9.76526e-08)
(0 -0.000500154 1.45552e-07)
(0 -0.00050021 1.967e-07)
(0 -0.000500286 2.64877e-07)
(0 -0.000555989 3.94442e-07)
(0 -0.000526875 4.97677e-07)
(0 -0.000455201 5.67677e-07)
(0 -0.000626218 1.01968e-06)
(0 -0.000477437 1.00051e-06)
(0 -0.000557482 1.47588e-06)
(0 -0.00055805 1.82335e-06)
(0 -0.000558654 2.188e-06)
(0 -0.000419356 1.893e-06)
(0 -0.000457694 2.20546e-06)
(0 -0.000561036 2.12985e-06)
(0 -0.000637121 2.11728e-06)
(0 -0.000588492 -6.91472e-06)
(0 -0.000415909 -1.64873e-05)
(0 -0.000372829 -2.03786e-05)
(0 -0.000324825 -1.58714e-05)
(0 -0.000253893 -1.10014e-05)
(0 -0.000296455 -1.05674e-05)
(0 -0.000293919 -8.35876e-06)
(0 -0.000261995 -7.11268e-06)
(0 -0.000295407 -7.9493e-06)
(0 -0.000212311 -5.90929e-06)
(0 -0.00028347 -7.98081e-06)
(0 -0.000201456 -5.96425e-06)
(0 -0.000240157 -7.29925e-06)
(0 -0.000150517 -4.56101e-06)
(0 -0.000154159 -4.81953e-06)
(0 -0.000189373 -5.62461e-06)
(0 -0.000144225 -4.35357e-06)
(0 -0.000168254 -4.86763e-06)
(0 -0.000115607 -3.49504e-06)
(0 -0.000101875 -3.3597e-06)
(0 -0.000102086 -3.42183e-06)
(0 -0.00010892 -3.85415e-06)
(0 -8.12657e-05 -3.10219e-06)
(0 -7.57581e-05 -3.11934e-06)
(0 -6.98729e-05 -3.10369e-06)
(0 -5.18799e-05 -2.42803e-06)
(0 -4.22149e-05 -2.15819e-06)
(0 -5.20783e-05 -2.70226e-06)
(0 -4.13848e-05 -2.49648e-06)
(0 -1.72934e-05 -1.17307e-06)
(0 -9.99366e-06 -1.2965e-06)
(0 -0.000481971 -1.64394e-05)
(0 -0.000531986 -1.37607e-05)
(0 -0.000593434 -1.14447e-05)
(0 -0.000437788 -6.24291e-06)
(0 -0.000456936 -4.79786e-06)
(0 -0.000627461 -4.8404e-06)
(0 -0.000436052 -2.46828e-06)
(0 -0.000527449 -2.18917e-06)
(0 -0.000527149 -1.60355e-06)
(0 -0.000556201 -1.23967e-06)
(0 -0.000667235 -1.08943e-06)
(0 -0.000454829 -5.43952e-07)
(0 -0.000476408 -4.17299e-07)
(0 -0.000416806 -2.67383e-07)
(0 -0.000500123 -2.34957e-07)
(0 -0.000555656 -1.91169e-07)
(0 -0.000666755 -1.67984e-07)
(0 -0.000666731 -1.23009e-07)
(0 -0.000454578 -6.1414e-08)
(0 -0.000526343 -5.20706e-08)
(0 -0.000625024 -4.52761e-08)
(0 -0.000500014 -2.65204e-08)
(0 -0.000588247 -2.28422e-08)
(0 -0.000454552 -1.292e-08)
(0 -0.000526322 -1.09466e-08)
(0 -0.00055556 -8.44952e-09)
(0 -0.000476193 -5.2898e-09)
(0 -0.000625003 -5.05967e-09)
(0 -0.000476192 -2.79755e-09)
(0 -0.000416668 -1.76223e-09)
(0 -0.000454546 -1.36268e-09)
(0 -0.000416667 -8.58295e-10)
(0 -0.000666668 -8.82391e-10)
(0 -0.000416667 -2.98685e-10)
(0 -0.000625001 -1.12676e-10)
(0 -0.000555556 1.88123e-10)
(0 -0.000416667 3.71108e-10)
(0 -0.000500001 7.64926e-10)
(0 -0.000416667 9.66145e-10)
(0 -0.000625001 2.08407e-09)
(0 -0.000434784 2.03325e-09)
(0 -0.000416668 2.69825e-09)
(0 -0.000526318 4.68857e-09)
(0 -0.000555559 6.78408e-09)
(0 -0.000500005 8.35357e-09)
(0 -0.000666675 1.52224e-08)
(0 -0.00043479 1.35592e-08)
(0 -0.000500011 2.12876e-08)
(0 -0.000555573 3.22788e-08)
(0 -0.000625026 4.95378e-08)
(0 -0.000588269 6.35741e-08)
(0 -0.000526357 7.75177e-08)
(0 -0.000588299 1.17979e-07)
(0 -0.000526394 1.43602e-07)
(0 -0.000625127 2.31665e-07)
(0 -0.000434904 2.1853e-07)
(0 -0.000454721 3.09006e-07)
(0 -0.000526598 4.82238e-07)
(0 -0.000555969 6.82732e-07)
(0 -0.000625647 1.02315e-06)
(0 -0.000476878 1.02839e-06)
(0 -0.000417505 1.17047e-06)
(0 -0.000455814 1.62627e-06)
(0 -0.000436442 1.9168e-06)
(0 -0.000591208 3.02127e-06)
(0 -0.0006708 3.57914e-06)
(0 -0.000502996 2.14549e-06)
(0 -0.00062452 3.92627e-07)
(0 -0.000419556 -2.68085e-06)
(0 -0.000436904 -1.16851e-05)
(0 -0.000478875 -2.30729e-05)
(0 -0.000305714 -1.49967e-05)
(0 -0.000385455 -1.67568e-05)
(0 -0.000246205 -9.65696e-06)
(0 -0.000258827 -9.94226e-06)
(0 -0.000283712 -9.56962e-06)
(0 -0.000228553 -7.31184e-06)
(0 -0.000252295 -8.36753e-06)
(0 -0.000194506 -6.07864e-06)
(0 -0.000225514 -7.60986e-06)
(0 -0.000182644 -6.10289e-06)
(0 -0.000172378 -5.70933e-06)
(0 -0.0001548 -4.91049e-06)
(0 -0.000138415 -4.65957e-06)
(0 -0.000201166 -6.79553e-06)
(0 -0.000141508 -4.8704e-06)
(0 -0.000166277 -5.83628e-06)
(0 -0.000146363 -5.14802e-06)
(0 -0.000121102 -4.28036e-06)
(0 -0.000133357 -4.88679e-06)
(0 -0.000108867 -4.20849e-06)
(0 -0.000105283 -4.16913e-06)
(0 -8.4618e-05 -3.5421e-06)
(0 -5.77903e-05 -2.54629e-06)
(0 -5.5999e-05 -2.50109e-06)
(0 -5.15527e-05 -2.52373e-06)
(0 -5.02204e-05 -3.04748e-06)
(0 -3.15897e-05 -2.39706e-06)
(0 -2.5081e-05 -1.96649e-06)
(0 -9.92036e-06 -1.28387e-06)
(0 -0.000669278 -2.33903e-05)
(0 -0.000418136 -1.13912e-05)
(0 -0.000589964 -1.22271e-05)
(0 -0.000435795 -6.76675e-06)
(0 -0.000417411 -4.81072e-06)
(0 -0.000435367 -3.70364e-06)
(0 -0.000526843 -3.29724e-06)
(0 -0.000435104 -1.9995e-06)
(0 -0.00066703 -2.24823e-06)
(0 -0.000454727 -1.12339e-06)
(0 -0.000588408 -1.06505e-06)
(0 -0.000588362 -7.80108e-07)
(0 -0.000416732 -4.04694e-07)
(0 -0.000416715 -2.9637e-07)
(0 -0.000476231 -2.48037e-07)
(0 -0.000454574 -1.73378e-07)
(0 -0.00052634 -1.47007e-07)
(0 -0.000666689 -1.36355e-07)
(0 -0.000625015 -9.36063e-08)
(0 -0.000588246 -6.45109e-08)
(0 -0.000416672 -3.34591e-08)
(0 -0.000416671 -2.44982e-08)
(0 -0.000500004 -2.15225e-08)
(0 -0.000454548 -1.43218e-08)
(0 -0.000416668 -9.60632e-09)
(0 -0.000500002 -8.42966e-09)
(0 -0.000434784 -5.35385e-09)
(0 -0.000416667 -3.7391e-09)
(0 -0.000625001 -4.0702e-09)
(0 -0.000434783 -2.03839e-09)
(0 -0.0005 -1.66163e-09)
(0 -0.000454546 -1.03797e-09)
(0 -0.000454546 -6.66976e-10)
(0 -0.000625 -4.96747e-10)
(0 -0.000588236 -1.17665e-10)
(0 -0.000476191 1.78653e-10)
(0 -0.000476191 4.70059e-10)
(0 -0.000454546 7.70786e-10)
(0 -0.000476191 1.22397e-09)
(0 -0.000416667 1.54024e-09)
(0 -0.000666668 3.45641e-09)
(0 -0.000500001 3.59003e-09)
(0 -0.000500001 4.93906e-09)
(0 -0.000500001 6.77131e-09)
(0 -0.000476192 8.82468e-09)
(0 -0.000625003 1.58333e-08)
(0 -0.000526319 1.82164e-08)
(0 -0.000434786 2.05524e-08)
(0 -0.000454551 2.93388e-08)
(0 -0.000476198 4.19601e-08)
(0 -0.00050001 6.01356e-08)
(0 -0.000625018 1.02577e-07)
(0 -0.0004348 9.73453e-08)
(0 -0.000666704 2.03539e-07)
(0 -0.000666719 2.77392e-07)
(0 -0.000476243 2.69808e-07)
(0 -0.000476266 3.66964e-07)
(0 -0.000526437 5.50672e-07)
(0 -0.000588436 8.33398e-07)
(0 -0.000500256 9.5537e-07)
(0 -0.000555987 1.42267e-06)
(0 -0.000556221 1.8878e-06)
(0 -0.000435595 1.92905e-06)
(0 -0.000668621 3.75902e-06)
(0 -0.000502309 3.41443e-06)
(0 -0.000457863 3.41112e-06)
(0 -0.00050583 3.15465e-06)
(0 -0.000636884 -4.61148e-07)
(0 -0.000511787 -1.03367e-05)
(0 -0.000407219 -1.34183e-05)
(0 -0.00040659 -1.66627e-05)
(0 -0.0003606 -1.62952e-05)
(0 -0.000421182 -1.90002e-05)
(0 -0.00038764 -1.4493e-05)
(0 -0.000271612 -9.58424e-06)
(0 -0.000357948 -1.19258e-05)
(0 -0.000340208 -1.03237e-05)
(0 -0.000198787 -5.89311e-06)
(0 -0.00028335 -8.12491e-06)
(0 -0.000177695 -5.30032e-06)
(0 -0.000166684 -4.95908e-06)
(0 -0.000189125 -5.58572e-06)
(0 -0.000199678 -5.79596e-06)
(0 -0.00014046 -4.12144e-06)
(0 -0.000177118 -5.58585e-06)
(0 -0.000135994 -4.30534e-06)
(0 -0.000133236 -4.48247e-06)
(0 -0.000107725 -3.82361e-06)
(0 -0.000119641 -4.38135e-06)
(0 -0.000110355 -4.16484e-06)
(0 -9.60561e-05 -3.61341e-06)
(0 -8.26893e-05 -3.25039e-06)
(0 -6.98839e-05 -3.00697e-06)
(0 -6.32974e-05 -2.83045e-06)
(0 -7.1004e-05 -3.61133e-06)
(0 -6.95877e-05 -3.66222e-06)
(0 -5.10326e-05 -3.19896e-06)
(0 -2.90303e-05 -2.36116e-06)
(0 -2.30058e-05 -2.39601e-06)
(0 -1.00841e-05 -1.59705e-06)
(0 -0.000498042 -1.75427e-05)
(0 -0.000452943 -1.24268e-05)
(0 -0.000498531 -1.03931e-05)
(0 -0.000525091 -8.19133e-06)
(0 -0.000587185 -6.79161e-06)
(0 -0.000587445 -5.01081e-06)
(0 -0.000475714 -2.98322e-06)
(0 -0.000416359 -1.91618e-06)
(0 -0.000555253 -1.87352e-06)
(0 -0.00062475 -1.54465e-06)
(0 -0.000454412 -8.22996e-07)
(0 -0.000499893 -6.63092e-07)
(0 -0.000555468 -5.39592e-07)
(0 -0.000588168 -4.18404e-07)
(0 -0.000588186 -3.06398e-07)
(0 -0.000624962 -2.38394e-07)
(0 -0.000555531 -1.55174e-07)
(0 -0.000624979 -1.27832e-07)
(0 -0.000624985 -9.3606e-08)
(0 -0.000526307 -5.772e-08)
(0 -0.000434777 -3.49136e-08)
(0 -0.000624994 -3.6747e-08)
(0 -0.000476187 -2.04974e-08)
(0 -0.000666663 -2.10051e-08)
(0 -0.000454544 -1.04795e-08)
(0 -0.000666665 -1.12394e-08)
(0 -0.000499999 -6.15684e-09)
(0 -0.000588235 -5.27866e-09)
(0 -0.000416666 -2.71344e-09)
(0 -0.000625 -2.93018e-09)
(0 -0.000454545 -1.51059e-09)
(0 -0.000526316 -1.2019e-09)
(0 -0.00047619 -6.98793e-10)
(0 -0.000434783 -3.45628e-10)
(0 -0.000666667 -1.3347e-10)
(0 -0.000555556 2.08326e-10)
(0 -0.000555556 5.48306e-10)
(0 -0.000454545 7.70731e-10)
(0 -0.000434783 1.11754e-09)
(0 -0.000666666 2.46455e-09)
(0 -0.0005 2.59268e-09)
(0 -0.000555555 3.98985e-09)
(0 -0.000624999 6.17594e-09)
(0 -0.000454545 6.15873e-09)
(0 -0.000526314 9.76015e-09)
(0 -0.000499998 1.26783e-08)
(0 -0.000666663 2.31029e-08)
(0 -0.000666662 3.15669e-08)
(0 -0.00066666 4.31284e-08)
(0 -0.000666658 5.89249e-08)
(0 -0.000555545 6.70945e-08)
(0 -0.000624985 1.0315e-07)
(0 -0.00045453 1.02537e-07)
(0 -0.00047617 1.46861e-07)
(0 -0.000526285 2.2199e-07)
(0 -0.000624954 3.60656e-07)
(0 -0.000555504 4.38782e-07)
(0 -0.000526258 5.69182e-07)
(0 -0.000666586 9.8744e-07)
(0 -0.000434735 8.81882e-07)
(0 -0.000624973 1.73424e-06)
(0 -0.000454607 1.72062e-06)
(0 -0.000526606 2.70153e-06)
(0 -0.00041726 2.86658e-06)
(0 -0.000527993 4.75593e-06)
(0 -0.0004576 5.23224e-06)
(0 -0.000440993 6.1859e-06)
(0 -0.000688455 1.14093e-05)
(0 -0.000436086 -4.93514e-06)
(0 -0.000454532 -3.14089e-05)
(0 -0.000587554 -3.40482e-05)
(0 -0.000342349 -1.50462e-05)
(0 -0.000293663 -1.25715e-05)
(0 -0.000322235 -1.25593e-05)
(0 -0.000298874 -1.03011e-05)
(0 -0.000252255 -8.09605e-06)
(0 -0.000249433 -7.30054e-06)
(0 -0.000248542 -6.76128e-06)
(0 -0.000235814 -6.27998e-06)
(0 -0.000183737 -4.59281e-06)
(0 -0.000172988 -4.3603e-06)
(0 -0.000178986 -4.77396e-06)
(0 -0.000187413 -5.34496e-06)
(0 -0.000198906 -5.493e-06)
(0 -0.000177863 -5.29492e-06)
(0 -0.000189803 -5.63559e-06)
(0 -0.000159173 -4.71414e-06)
(0 -0.000115759 -3.31498e-06)
(0 -0.000102054 -3.13671e-06)
(0 -9.74868e-05 -3.11366e-06)
(0 -0.000114893 -3.80939e-06)
(0 -0.000112158 -3.68672e-06)
(0 -7.76838e-05 -2.72549e-06)
(0 -8.48927e-05 -3.30625e-06)
(0 -5.45536e-05 -2.28065e-06)
(0 -7.1115e-05 -3.32967e-06)
(0 -6.09666e-05 -3.29634e-06)
(0 -3.10946e-05 -1.70136e-06)
(0 -2.03268e-05 -1.43131e-06)
(0 -9.23633e-06 -8.68306e-07)
(0 -0.000548812 -1.91793e-05)
(0 -0.000659485 -1.74302e-05)
(0 -0.000619477 -1.216e-05)
(0 -0.000451403 -6.52668e-06)
(0 -0.000523548 -5.55542e-06)
(0 -0.000474316 -3.68792e-06)
(0 -0.000433514 -2.46828e-06)
(0 -0.000433847 -1.80845e-06)
(0 -0.000665612 -2.03116e-06)
(0 -0.000525705 -1.17442e-06)
(0 -0.000587734 -9.6126e-07)
(0 -0.000416407 -4.98622e-07)
(0 -0.000475973 -4.17298e-07)
(0 -0.000454393 -2.91689e-07)
(0 -0.000434676 -2.0431e-07)
(0 -0.000434705 -1.4961e-07)
(0 -0.000555483 -1.39986e-07)
(0 -0.000416627 -7.68796e-08)
(0 -0.000588194 -7.94759e-08)
(0 -0.000454522 -4.49693e-08)
(0 -0.000588213 -4.2612e-08)
(0 -0.000499986 -2.65197e-08)
(0 -0.000526305 -2.04371e-08)
(0 -0.000499993 -1.42115e-08)
(0 -0.000588229 -1.2234e-08)
(0 -0.000666662 -1.0139e-08)
(0 -0.000499997 -5.55404e-09)
(0 -0.000555553 -4.49729e-09)
(0 -0.000666665 -3.91645e-09)
(0 -0.000499999 -2.11466e-09)
(0 -0.000454545 -1.36272e-09)
(0 -0.000624999 -1.28759e-09)
(0 -0.0005 -6.61971e-10)
(0 -0.000555555 -3.985e-10)
(0 -0.000526316 -9.51671e-11)
(0 -0.000434782 1.46976e-10)
(0 -0.000416666 3.70875e-10)
(0 -0.000454545 6.9519e-10)
(0 -0.000666666 1.54575e-09)
(0 -0.000526315 1.75528e-09)
(0 -0.000666665 3.11885e-09)
(0 -0.000555554 3.6e-09)
(0 -0.000476188 4.24618e-09)
(0 -0.000416664 5.09516e-09)
(0 -0.00058823 9.8468e-09)
(0 -0.00045454 1.04065e-08)
(0 -0.000499992 1.56496e-08)
(0 -0.000416658 1.78267e-08)
(0 -0.000499985 2.92435e-08)
(0 -0.000434765 3.47696e-08)
(0 -0.000624965 6.83636e-08)
(0 -0.000666616 9.97901e-08)
(0 -0.000666598 1.36653e-07)
(0 -0.000434721 1.22156e-07)
(0 -0.000624881 2.40984e-07)
(0 -0.000476068 2.52384e-07)
(0 -0.000555364 4.05612e-07)
(0 -0.000416475 4.20222e-07)
(0 -0.000499697 6.99039e-07)
(0 -0.000525904 1.02454e-06)
(0 -0.000666014 1.81641e-06)
(0 -0.000554911 2.13094e-06)
(0 -0.00052567 2.8577e-06)
(0 -0.000454104 3.50519e-06)
(0 -0.000666658 7.28366e-06)
(0 -0.000556726 8.48597e-06)
(0 -0.000628067 1.3017e-05)
(0 -0.000499948 1.26368e-05)
(0 -0.000535109 -1.25113e-05)
(0 -0.000456135 -4.61085e-05)
(0 -0.000344174 -2.86805e-05)
(0 -0.000469774 -2.64435e-05)
(0 -0.000355462 -1.54414e-05)
(0 -0.000278083 -1.06512e-05)
(0 -0.00022384 -7.33653e-06)
(0 -0.000251934 -7.91805e-06)
(0 -0.000265621 -7.56446e-06)
(0 -0.000187525 -5.14745e-06)
(0 -0.00020259 -5.42993e-06)
(0 -0.000224725 -5.95278e-06)
(0 -0.000240958 -6.65982e-06)
(0 -0.000215929 -5.90319e-06)
(0 -0.000157175 -4.74169e-06)
(0 -0.000192779 -5.90224e-06)
(0 -0.000146888 -4.49526e-06)
(0 -0.000137554 -4.46403e-06)
(0 -0.000128222 -4.04087e-06)
(0 -0.000148404 -4.34026e-06)
(0 -0.000111056 -3.22944e-06)
(0 -0.000113116 -3.54112e-06)
(0 -9.80147e-05 -3.56175e-06)
(0 -0.000120032 -4.69385e-06)
(0 -9.60437e-05 -3.67323e-06)
(0 -6.17002e-05 -2.58372e-06)
(0 -7.76407e-05 -3.4452e-06)
(0 -7.23323e-05 -3.67347e-06)
(0 -3.573e-05 -2.21483e-06)
(0 -3.59291e-05 -2.2638e-06)
(0 -1.84034e-05 -1.39447e-06)
(0 -1.05096e-05 -1.44815e-06)
(0 -0.00051488 -1.73173e-05)
(0 -0.000654272 -1.55089e-05)
(0 -0.000518566 -8.70201e-06)
(0 -0.000581631 -6.97645e-06)
(0 -0.000472191 -4.08196e-06)
(0 -0.000523041 -3.27781e-06)
(0 -0.000622134 -2.83709e-06)
(0 -0.000415263 -1.38129e-06)
(0 -0.000433708 -1.05382e-06)
(0 -0.000453722 -8.06044e-07)
(0 -0.000434205 -5.64294e-07)
(0 -0.000555015 -5.27845e-07)
(0 -0.00055516 -3.86461e-07)
(0 -0.000454308 -2.31518e-07)
(0 -0.000434617 -1.62154e-07)
(0 -0.000476057 -1.30044e-07)
(0 -0.000555442 -1.11096e-07)
(0 -0.000526237 -7.70684e-08)
(0 -0.000624932 -6.70143e-08)
(0 -0.00062495 -4.90704e-08)
(0 -0.000476163 -2.73753e-08)
(0 -0.00047617 -2.00436e-08)
(0 -0.000416654 -1.28397e-08)
(0 -0.000416657 -9.39829e-09)
(0 -0.000666656 -1.1003e-08)
(0 -0.000666659 -8.04602e-09)
(0 -0.000666661 -5.87669e-09)
(0 -0.000588232 -3.77885e-09)
(0 -0.000499998 -2.33098e-09)
(0 -0.000555554 -1.86461e-09)
(0 -0.000555554 -1.32178e-09)
(0 -0.00047619 -7.78578e-10)
(0 -0.000454545 -4.77655e-10)
(0 -0.000624999 -3.55927e-10)
(0 -0.000666666 -9.5862e-11)
(0 -0.000588235 1.57602e-10)
(0 -0.000434782 3.06956e-10)
(0 -0.000434782 5.27545e-10)
(0 -0.000434782 7.9987e-10)
(0 -0.000588234 1.55673e-09)
(0 -0.000499998 1.85634e-09)
(0 -0.000624997 3.21441e-09)
(0 -0.000416664 2.94917e-09)
(0 -0.00055555 5.3932e-09)
(0 -0.000434777 5.7788e-09)
(0 -0.000416659 7.57582e-09)
(0 -0.000416656 1.03599e-08)
(0 -0.000588215 1.99998e-08)
(0 -0.000416647 1.93756e-08)
(0 -0.000666624 4.24159e-08)
(0 -0.000476149 4.14768e-08)
(0 -0.000555489 6.62995e-08)
(0 -0.000434711 7.11703e-08)
(0 -0.000526198 1.18352e-07)
(0 -0.000555385 1.71971e-07)
(0 -0.000499791 2.13649e-07)
(0 -0.000416429 2.4669e-07)
(0 -0.000666148 5.49663e-07)
(0 -0.000665961 7.70658e-07)
(0 -0.000475507 7.78783e-07)
(0 -0.000499034 1.17067e-06)
(0 -0.000586724 2.00185e-06)
(0 -0.000415281 2.09937e-06)
(0 -0.000622455 4.75673e-06)
(0 -0.000414843 4.86646e-06)
(0 -0.000553784 9.90477e-06)
(0 -0.000667212 1.67245e-05)
(0 -0.000498818 8.7744e-06)
(0 -0.00043092 -2.37605e-05)
(0 -0.000467579 -4.08451e-05)
(0 -0.000384109 -2.62039e-05)
(0 -0.00035718 -1.94385e-05)
(0 -0.000292328 -1.24031e-05)
(0 -0.000233421 -8.17946e-06)
(0 -0.000329813 -9.92987e-06)
(0 -0.000215027 -6.49978e-06)
(0 -0.000313784 -9.44234e-06)
(0 -0.000263779 -7.12924e-06)
(0 -0.000285861 -7.70281e-06)
(0 -0.000240629 -6.7236e-06)
(0 -0.000160281 -4.58054e-06)
(0 -0.000244783 -6.86401e-06)
(0 -0.000143908 -4.05529e-06)
(0 -0.000140686 -4.08462e-06)
(0 -0.000180302 -5.35158e-06)
(0 -0.000124409 -3.82671e-06)
(0 -0.000133415 -4.17067e-06)
(0 -0.000147035 -4.67077e-06)
(0 -0.000156552 -4.74099e-06)
(0 -0.000146717 -4.64421e-06)
(0 -0.000106678 -3.69663e-06)
(0 -7.9165e-05 -3.00687e-06)
(0 -8.14337e-05 -3.17936e-06)
(0 -8.05288e-05 -3.3394e-06)
(0 -7.5013e-05 -3.66291e-06)
(0 -7.45494e-05 -3.7499e-06)
(0 -3.92874e-05 -1.84919e-06)
(0 -3.06027e-05 -1.68307e-06)
(0 -2.56539e-05 -1.75169e-06)
(0 -9.47757e-06 -1.04705e-06)
(0 -0.000536415 -1.56932e-05)
(0 -0.000486429 -8.73589e-06)
(0 -0.000466552 -5.50284e-06)
(0 -0.000656751 -5.3168e-06)
(0 -0.000449595 -2.56609e-06)
(0 -0.000450923 -1.84329e-06)
(0 -0.000584805 -1.72789e-06)
(0 -0.00052407 -1.12516e-06)
(0 -0.000586398 -9.17661e-07)
(0 -0.000665142 -7.60076e-07)
(0 -0.000434055 -3.62584e-07)
(0 -0.000554874 -3.39047e-07)
(0 -0.000587707 -2.62784e-07)
(0 -0.00055519 -1.81701e-07)
(0 -0.000555288 -1.33038e-07)
(0 -0.000588028 -1.03143e-07)
(0 -0.000499871 -6.41958e-08)
(0 -0.000416588 -3.91723e-08)
(0 -0.000499931 -3.44201e-08)
(0 -0.0004545 -2.29122e-08)
(0 -0.000666617 -2.46056e-08)
(0 -0.000499973 -1.35116e-08)
(0 -0.000526295 -1.04124e-08)
(0 -0.000454532 -6.58214e-09)
(0 -0.000454536 -4.81621e-09)
(0 -0.000555547 -4.30446e-09)
(0 -0.000588229 -3.32881e-09)
(0 -0.000526312 -2.17054e-09)
(0 -0.000416664 -1.24702e-09)
(0 -0.000416665 -8.97795e-10)
(0 -0.000588233 -8.98539e-10)
(0 -0.000666665 -6.99898e-10)
(0 -0.000588234 -3.97007e-10)
(0 -0.000588234 -2.15281e-10)
(0 -0.000666666 -6.18521e-11)
(0 -0.000555555 9.52562e-11)
(0 -0.000454545 2.05744e-10)
(0 -0.000555554 4.32393e-10)
(0 -0.000416666 4.91833e-10)
(0 -0.000499998 8.49175e-10)
(0 -0.000416665 9.92907e-10)
(0 -0.000555552 1.83417e-09)
(0 -0.000499996 2.27211e-09)
(0 -0.000555549 3.46301e-09)
(0 -0.000624989 5.33479e-09)
(0 -0.000499988 5.83929e-09)
(0 -0.000588217 9.39639e-09)
(0 -0.000434764 9.4998e-09)
(0 -0.000666627 1.99298e-08)
(0 -0.000454508 1.86011e-08)
(0 -0.000666592 3.73734e-08)
(0 -0.000526235 4.0462e-08)
(0 -0.000499895 5.2789e-08)
(0 -0.000416547 6.05327e-08)
(0 -0.000666405 1.3363e-07)
(0 -0.000555256 1.5421e-07)
(0 -0.000416357 1.60969e-07)
(0 -0.000665984 3.60928e-07)
(0 -0.000453902 3.48147e-07)
(0 -0.000415847 4.57425e-07)
(0 -0.000453297 7.28255e-07)
(0 -0.000553413 1.33168e-06)
(0 -0.000523456 1.95285e-06)
(0 -0.000522309 3.16505e-06)
(0 -0.000494884 5.17659e-06)
(0 -0.000581557 1.13056e-05)
(0 -0.000622627 2.20754e-05)
(0 -0.000428452 3.31828e-06)
(0 -0.000500972 -3.60176e-05)
(0 -0.00038674 -2.77745e-05)
(0 -0.000365744 -1.98093e-05)
(0 -0.000325061 -1.38755e-05)
(0 -0.000296845 -9.99334e-06)
(0 -0.000261555 -6.97748e-06)
(0 -0.000271736 -7.09781e-06)
(0 -0.000256829 -7.05084e-06)
(0 -0.000199167 -5.7086e-06)
(0 -0.000256391 -6.89759e-06)
(0 -0.000244952 -6.55845e-06)
(0 -0.000187925 -4.95791e-06)
(0 -0.000161642 -3.86666e-06)
(0 -0.000185567 -4.86122e-06)
(0 -0.000166679 -4.23998e-06)
(0 -0.00018609 -4.66279e-06)
(0 -0.000149166 -3.98326e-06)
(0 -0.000139915 -3.87358e-06)
(0 -0.000124211 -3.41435e-06)
(0 -0.000115198 -3.47741e-06)
(0 -0.000151207 -4.93819e-06)
(0 -0.000141642 -4.66524e-06)
(0 -0.000102777 -3.40755e-06)
(0 -8.83898e-05 -2.8667e-06)
(0 -9.42138e-05 -3.39717e-06)
(0 -8.4571e-05 -3.46528e-06)
(0 -5.09281e-05 -2.2457e-06)
(0 -4.55552e-05 -2.45069e-06)
(0 -5.52129e-05 -2.79718e-06)
(0 -4.41635e-05 -2.29179e-06)
(0 -2.25476e-05 -1.37055e-06)
(0 -9.49534e-06 -7.14628e-07)
(0 -0.000393963 -5.16026e-06)
(0 -0.00056748 -4.0117e-06)
(0 -0.0005421 -2.35726e-06)
(0 -0.000427331 -1.23455e-06)
(0 -0.000658454 -1.31936e-06)
(0 -0.000582982 -8.29595e-07)
(0 -0.000496749 -5.08642e-07)
(0 -0.000414689 -3.07789e-07)
(0 -0.000498265 -2.69191e-07)
(0 -0.000433679 -1.70956e-07)
(0 -0.000623839 -1.79686e-07)
(0 -0.000453927 -9.56125e-08)
(0 -0.000475717 -7.33128e-08)
(0 -0.000525932 -5.93194e-08)
(0 -0.000475936 -3.92945e-08)
(0 -0.000416504 -2.51749e-08)
(0 -0.000434658 -1.92351e-08)
(0 -0.000624869 -2.02465e-08)
(0 -0.000666565 -1.58134e-08)
(0 -0.000526257 -9.14127e-09)
(0 -0.000588187 -7.48067e-09)
(0 -0.000476162 -4.4338e-09)
(0 -0.000434764 -2.96366e-09)
(0 -0.000499984 -2.49463e-09)
(0 -0.000526303 -1.92138e-09)
(0 -0.000434775 -1.16063e-09)
(0 -0.000666658 -1.29979e-09)
(0 -0.000454541 -6.45837e-10)
(0 -0.000454542 -4.68695e-10)
(0 -0.000434781 -3.22777e-10)
(0 -0.000588233 -3.09607e-10)
(0 -0.000624998 -2.26122e-10)
(0 -0.000526315 -1.2245e-10)
(0 -0.000499999 -6.31275e-11)
(0 -0.000416666 -1.34016e-11)
(0 -0.00047619 2.80205e-11)
(0 -0.000624999 9.73059e-11)
(0 -0.000476189 1.27558e-10)
(0 -0.000499999 2.03197e-10)
(0 -0.000526314 3.07813e-10)
(0 -0.000499997 4.10371e-10)
(0 -0.000454542 5.16935e-10)
(0 -0.000434778 6.80659e-10)
(0 -0.000624991 1.34231e-09)
(0 -0.000666654 1.96084e-09)
(0 -0.000416656 1.67697e-09)
(0 -0.000526297 2.89775e-09)
(0 -0.000416647 3.13839e-09)
(0 -0.000434754 4.48158e-09)
(0 -0.000434743 6.13643e-09)
(0 -0.000555487 1.07453e-08)
(0 -0.000526226 1.39666e-08)
(0 -0.00045444 1.6576e-08)
(0 -0.0006248 3.13905e-08)
(0 -0.00049978 3.46912e-08)
(0 -0.000475903 4.58318e-08)
(0 -0.000555092 7.45998e-08)
(0 -0.000554912 1.04907e-07)
(0 -0.00043408 1.16739e-07)
(0 -0.000433795 1.68589e-07)
(0 -0.000664512 3.81641e-07)
(0 -0.000552957 4.84671e-07)
(0 -0.000431764 6.05465e-07)
(0 -0.000412202 9.91684e-07)
(0 -0.000545784 2.4967e-06)
(0 -0.000509567 5.12167e-06)
(0 -0.000491241 1.12778e-05)
(0 -0.000392322 7.5792e-08)
(0 -0.00048953 -2.45884e-05)
(0 -0.000346248 -1.37507e-05)
(0 -0.000301505 -8.34607e-06)
(0 -0.000270039 -5.8083e-06)
(0 -0.000246945 -4.33817e-06)
(0 -0.00030498 -4.03415e-06)
(0 -0.000310154 -4.07294e-06)
(0 -0.000189226 -2.9541e-06)
(0 -0.000176819 -2.75264e-06)
(0 -0.000192457 -2.98906e-06)
(0 -0.000173763 -2.71323e-06)
(0 -0.000149345 -2.23237e-06)
(0 -0.000219286 -2.74037e-06)
(0 -0.000156122 -2.25892e-06)
(0 -0.000140081 -2.06721e-06)
(0 -0.000164405 -2.3714e-06)
(0 -0.000156312 -2.25883e-06)
(0 -0.000112719 -1.77681e-06)
(0 -0.000156523 -2.24771e-06)
(0 -0.000130248 -2.0663e-06)
(0 -9.76254e-05 -1.8725e-06)
(0 -9.98204e-05 -1.94966e-06)