/*--------------------------------*- C++ -*----------------------------------*\
| =========                 |                                                 |
| \\      /  F ield         | foam-extend: Open Source CFD                    |
|  \\    /   O peration     | Version:     5.0                                |
|   \\  /    A nd           | Web:         http://www.foam-extend.org         |
|    \\/     M anipulation  |                                                 |
\*---------------------------------------------------------------------------*/
FoamFile
{
    version     2.0;
    format      ascii;
    class       volScalarField;
    location    "6";
    object      alpha.gas;
}
// * * * * * * * * * * * * * * * * * * * * * * * * * * * * * * * * * * * * * //

dimensions      [0 0 0 0 0 0 0];

internalField   nonuniform List<scalar> 
100
(
0.000141875
0.000229699
0.000311609
0.000390995
0.000469262
0.000546945
0.000624239
0.000701582
0.000779077
0.000857295
0.000935743
0.00101558
0.00109667
0.00117968
0.00126443
0.00135264
0.00144466
0.00154139
0.00164566
0.00176028
0.00188939
0.00203937
0.00222749
0.00247606
0.00284802
0.00347726
0.00480795
0.00852293
0.0205032
0.0449423
0.0731486
0.0993715
0.122179
0.141247
0.156858
0.168442
0.177297
0.182575
0.186214
0.188044
0.189084
0.189552
0.18978
0.189975
0.190137
0.190222
0.190194
0.190251
0.190179
0.190211
0.19008
0.190113
0.19012
0.189912
0.190023
0.189816
0.189841
0.189777
0.189829
0.189841
0.18994
0.189979
0.189896
0.190087
0.19006
0.190058
0.190036
0.190042
0.190023
0.190054
0.190064
0.190027
0.190016
0.190008
0.190052
0.190045
0.190015
0.189993
0.189923
0.1899
0.189898
0.189917
0.189919
0.189943
0.189944
0.190115
0.189964
0.189997
0.18998
0.189909
0.189926
0.189937
0.18995
0.189827
0.189812
0.189776
0.18973
0.189795
0.189644
0.189679
)
;

boundaryField
{
    inlet
    {
        type            fixedValue;
        value           uniform 0;
    }
    outlet
    {
        type            zeroGradient;
    }
    yzfaces
    {
        type            empty;
    }
}


// ************************************************************************* //
