/*--------------------------------*- C++ -*----------------------------------*\
| =========                 |                                                 |
| \\      /  F ield         | foam-extend: Open Source CFD                    |
|  \\    /   O peration     | Version:     5.0                                |
|   \\  /    A nd           | Web:         http://www.foam-extend.org         |
|    \\/     M anipulation  |                                                 |
\*---------------------------------------------------------------------------*/
FoamFile
{
    version     2.0;
    format      ascii;
    class       surfaceScalarField;
    location    "6";
    object      phi;
}
// * * * * * * * * * * * * * * * * * * * * * * * * * * * * * * * * * * * * * //

dimensions      [0 3 -1 0 0 0 0];

internalField   nonuniform List<scalar> 
99
(
1.22485e-06
1.22449e-06
1.22636e-06
1.22502e-06
1.22372e-06
1.22711e-06
1.22517e-06
1.22443e-06
1.22581e-06
1.22488e-06
1.2275e-06
1.22455e-06
1.22421e-06
1.22459e-06
1.22507e-06
1.22442e-06
1.22362e-06
1.22436e-06
1.22666e-06
1.22382e-06
1.22365e-06
1.22657e-06
1.22232e-06
1.22675e-06
1.22278e-06
1.22636e-06
1.22377e-06
1.22376e-06
1.22714e-06
1.22627e-06
1.22737e-06
1.21556e-06
1.22139e-06
1.24197e-06
1.22793e-06
1.24576e-06
1.21413e-06
1.25232e-06
1.22926e-06
1.23705e-06
1.20336e-06
1.25244e-06
1.24566e-06
1.26055e-06
1.23734e-06
1.22961e-06
1.24482e-06
1.22889e-06
1.25146e-06
1.26603e-06
1.28884e-06
1.2892e-06
1.27273e-06
1.29705e-06
1.25808e-06
1.28157e-06
1.2886e-06
1.26701e-06
1.27434e-06
1.28906e-06
1.29647e-06
1.25853e-06
1.29038e-06
1.26678e-06
1.2371e-06
1.22924e-06
1.23689e-06
1.22892e-06
1.26665e-06
1.23708e-06
1.25147e-06
1.26654e-06
1.24426e-06
1.22997e-06
1.20749e-06
1.22174e-06
1.21484e-06
1.21429e-06
1.24413e-06
1.23672e-06
1.2444e-06
1.24397e-06
1.22173e-06
1.22942e-06
1.23799e-06
1.20616e-06
1.2148e-06
1.21473e-06
1.21404e-06
1.21449e-06
1.20716e-06
1.18515e-06
1.1544e-06
1.15448e-06
1.1622e-06
1.1546e-06
1.19248e-06
1.19882e-06
1.21413e-06
)
;

boundaryField
{
    inlet
    {
        type            calculated;
        value           uniform -1.225e-06;
    }
    outlet
    {
        type            calculated;
        value           uniform 1.26664e-06;
    }
    yzfaces
    {
        type            empty;
    }
}


// ************************************************************************* //
