/*--------------------------------*- C++ -*----------------------------------*\
| =========                 |                                                 |
| \\      /  F ield         | foam-extend: Open Source CFD                    |
|  \\    /   O peration     | Version:     5.0                                |
|   \\  /    A nd           | Web:         http://www.foam-extend.org         |
|    \\/     M anipulation  |                                                 |
\*---------------------------------------------------------------------------*/
FoamFile
{
    version     2.0;
    format      ascii;
    class       volScalarField;
    location    "3";
    object      YH2O;
}
// * * * * * * * * * * * * * * * * * * * * * * * * * * * * * * * * * * * * * //

dimensions      [0 0 0 0 0 0 0];

internalField   nonuniform List<scalar> 
100
(
0.98419
1.01612
0.984653
1.02407
0.970103
1.02566
0.984318
1.00429
1.00523
0.989514
1.00924
0.998009
0.991816
1.0222
0.935485
0.973825
0.857796
0.767492
0.663841
0.432936
0.464114
0.193397
0.198598
0.0407977
0.0458999
0.0732492
-0.0399847
0.0323046
0.00871538
0.0275027
-0.00739643
0.0249643
0.0105394
0.0452204
0.00215283
0.0599467
-0.00502682
0.022324
0.0336774
-0.00614175
-0.000932257
-0.00991532
-0.0194362
0.0447977
-0.0318367
0.0432465
-0.0602314
0.0270492
-0.0297722
0.0231312
-0.063213
0.00125576
-0.0125328
-0.00950086
-1.97645e-05
0.0084332
0.0202318
0.000262007
-0.00994342
-0.00677601
0.0399262
-0.0360719
0.0103007
0.0161444
-0.0242847
0.0012006
-0.0609686
0.0034317
-0.0296958
0.0110553
-0.00326142
0.0183516
-0.0121825
-0.00875541
0.0372445
-0.0196631
-0.0244099
0.0341251
-0.0714587
0.0469541
-0.0785276
0.0564867
0.00430647
0.0315766
-0.0297131
0.0237628
0.0136904
0.00673326
0.0240082
0.0345851
-0.00115762
0.035526
-0.00777942
0.0329254
-0.0326352
0.0300684
-0.0298555
0.0159151
-0.0754926
-0.0449334
)
;

boundaryField
{
    inlet
    {
        type            calculated;
        value           uniform 1;
    }
    outlet
    {
        type            calculated;
        value           uniform -0.0449334;
    }
    yzfaces
    {
        type            empty;
    }
}


// ************************************************************************* //
