/*--------------------------------*- C++ -*----------------------------------*\
| =========                 |                                                 |
| \\      /  F ield         | foam-extend: Open Source CFD                    |
|  \\    /   O peration     | Version:     5.0                                |
|   \\  /    A nd           | Web:         http://www.foam-extend.org         |
|    \\/     M anipulation  |                                                 |
\*---------------------------------------------------------------------------*/
FoamFile
{
    version     2.0;
    format      ascii;
    class       volScalarField;
    location    "7";
    object      alpha.gas;
}
// * * * * * * * * * * * * * * * * * * * * * * * * * * * * * * * * * * * * * //

dimensions      [0 0 0 0 0 0 0];

internalField   nonuniform List<scalar> 
100
(
0.000118369
0.000191613
0.000259903
0.000325931
0.000390677
0.00045487
0.000518762
0.000582441
0.000645982
0.000709579
0.000773289
0.000837447
0.000901725
0.000966966
0.00103253
0.00109942
0.00116698
0.00123654
0.00130706
0.00138083
0.00145684
0.00153626
0.0016206
0.00171299
0.00181233
0.0019256
0.0020589
0.00222185
0.00243643
0.00274703
0.00326179
0.0043055
0.00712467
0.0159681
0.0373346
0.06514
0.0919548
0.115555
0.136024
0.152323
0.165287
0.174688
0.181454
0.185495
0.187549
0.188897
0.189453
0.189899
0.189844
0.190047
0.189998
0.190119
0.189962
0.189871
0.18992
0.189846
0.189847
0.189881
0.189852
0.189829
0.189865
0.189851
0.189876
0.190036
0.189995
0.190029
0.190054
0.190062
0.190065
0.189984
0.19002
0.189997
0.190054
0.190026
0.189911
0.190131
0.190179
0.190155
0.190126
0.190034
0.190019
0.190004
0.189975
0.190016
0.189911
0.190117
0.190124
0.190059
0.189983
0.18985
0.18988
0.189802
0.189853
0.18983
0.18989
0.189873
0.189697
0.189823
0.18964
0.189526
)
;

boundaryField
{
    inlet
    {
        type            fixedValue;
        value           uniform 0;
    }
    outlet
    {
        type            zeroGradient;
    }
    yzfaces
    {
        type            empty;
    }
}


// ************************************************************************* //
