/*--------------------------------*- C++ -*----------------------------------*\
| =========                 |                                                 |
| \\      /  F ield         | foam-extend: Open Source CFD                    |
|  \\    /   O peration     | Version:     5.0                                |
|   \\  /    A nd           | Web:         http://www.foam-extend.org         |
|    \\/     M anipulation  |                                                 |
\*---------------------------------------------------------------------------*/
FoamFile
{
    version     2.0;
    format      ascii;
    class       volVectorField;
    location    "7";
    object      U.water;
}
// * * * * * * * * * * * * * * * * * * * * * * * * * * * * * * * * * * * * * //

dimensions      [0 1 -1 0 0 0 0];

internalField   nonuniform List<vector> 
100
(
(0.00500072 0 0)
(0.00500286 0 0)
(0.00500793 0 0)
(0.00501126 0 0)
(0.00500849 0 0)
(0.00500528 0 0)
(0.00501114 0 0)
(0.00501176 0 0)
(0.00501526 0 0)
(0.00501639 0 0)
(0.00501374 0 0)
(0.00501396 0 0)
(0.0050123 0 0)
(0.00501116 0 0)
(0.00501196 0 0)
(0.00500851 0 0)
(0.00500703 0 0)
(0.00500849 0 0)
(0.00500957 0 0)
(0.00501273 0 0)
(0.00501117 0 0)
(0.00501178 0 0)
(0.00501521 0 0)
(0.00501177 0 0)
(0.00501032 0 0)
(0.00501724 0 0)
(0.00501605 0 0)
(0.00501374 0 0)
(0.00501162 0 0)
(0.00501235 0 0)
(0.00501497 0 0)
(0.00500073 0 0)
(0.00496814 0 0)
(0.00487039 0 0)
(0.00475207 0 0)
(0.00464493 0 0)
(0.00452449 0 0)
(0.00438116 0 0)
(0.00418787 0 0)
(0.00384677 0 0)
(0.00345851 0 0)
(0.00292202 0 0)
(0.0023095 0 0)
(0.00147486 0 0)
(0.000871838 0 0)
(0.000520414 0 0)
(0.000279483 0 0)
(0.000115395 0 0)
(4.55669e-05 0 0)
(4.81041e-05 0 0)
(2.4687e-05 0 0)
(-5.42666e-06 0 0)
(-6.47194e-05 0 0)
(-6.97484e-06 0 0)
(-2.03601e-06 0 0)
(-1.52728e-05 0 0)
(1.4568e-05 0 0)
(6.06282e-06 0 0)
(-9.51874e-06 0 0)
(8.61662e-06 0 0)
(1.09444e-05 0 0)
(8.06599e-06 0 0)
(5.61755e-05 0 0)
(3.84606e-05 0 0)
(3.00085e-06 0 0)
(2.125e-05 0 0)
(1.42321e-05 0 0)
(7.95618e-06 0 0)
(-1.72793e-05 0 0)
(-7.53033e-06 0 0)
(8.84437e-06 0 0)
(1.44567e-05 0 0)
(1.29762e-05 0 0)
(-3.53151e-05 0 0)
(3.37514e-05 0 0)
(8.04767e-05 0 0)
(1.1514e-05 0 0)
(-9.97021e-06 0 0)
(-2.9467e-05 0 0)
(-2.52003e-05 0 0)
(-3.55874e-06 0 0)
(-7.58979e-06 0 0)
(8.28885e-06 0 0)
(-1.31433e-05 0 0)
(3.28584e-05 0 0)
(6.52388e-05 0 0)
(-1.17154e-05 0 0)
(-3.49609e-05 0 0)
(-5.37879e-05 0 0)
(-2.35574e-05 0 0)
(-8.53581e-06 0 0)
(-2.68567e-06 0 0)
(1.2735e-05 0 0)
(1.51207e-05 0 0)
(1.66348e-05 0 0)
(-4.90813e-05 0 0)
(-8.66114e-06 0 0)
(-1.11839e-05 0 0)
(-7.66369e-05 0 0)
(-2.59645e-05 0 0)
)
;

boundaryField
{
    inlet
    {
        type            fixedValue;
        value           uniform (0.005 0 0);
    }
    outlet
    {
        type            zeroGradient;
    }
    yzfaces
    {
        type            empty;
    }
}


// ************************************************************************* //
