/*--------------------------------*- C++ -*----------------------------------*\
| =========                 |                                                 |
| \\      /  F ield         | foam-extend: Open Source CFD                    |
|  \\    /   O peration     | Version:     5.0                                |
|   \\  /    A nd           | Web:         http://www.foam-extend.org         |
|    \\/     M anipulation  |                                                 |
\*---------------------------------------------------------------------------*/
FoamFile
{
    version     2.0;
    format      ascii;
    class       surfaceScalarField;
    location    "7";
    object      phi;
}
// * * * * * * * * * * * * * * * * * * * * * * * * * * * * * * * * * * * * * //

dimensions      [0 3 -1 0 0 0 0];

internalField   nonuniform List<scalar> 
99
(
1.22698e-06
1.22315e-06
1.2236e-06
1.22549e-06
1.22463e-06
1.22308e-06
1.22529e-06
1.22425e-06
1.22439e-06
1.2234e-06
1.22335e-06
1.22239e-06
1.22425e-06
1.2224e-06
1.22222e-06
1.22299e-06
1.22312e-06
1.22259e-06
1.22091e-06
1.2238e-06
1.22161e-06
1.21973e-06
1.22286e-06
1.21984e-06
1.22161e-06
1.22136e-06
1.22112e-06
1.22361e-06
1.22118e-06
1.22298e-06
1.22252e-06
1.21973e-06
1.22427e-06
1.22582e-06
1.21351e-06
1.22172e-06
1.20436e-06
1.23187e-06
1.23345e-06
1.23849e-06
1.23258e-06
1.24371e-06
1.28236e-06
1.28154e-06
1.29641e-06
1.2964e-06
1.3411e-06
1.2815e-06
1.2666e-06
1.2964e-06
1.2964e-06
1.2964e-06
1.3262e-06
1.3113e-06
1.35601e-06
1.3262e-06
1.3262e-06
1.3411e-06
1.3411e-06
1.3262e-06
1.3113e-06
1.3262e-06
1.3262e-06
1.3411e-06
1.3113e-06
1.3262e-06
1.2964e-06
1.3113e-06
1.2666e-06
1.2964e-06
1.2666e-06
1.2815e-06
1.3113e-06
1.3262e-06
1.2964e-06
1.2964e-06
1.3262e-06
1.3113e-06
1.3411e-06
1.35601e-06
1.3113e-06
1.37091e-06
1.3262e-06
1.3411e-06
1.3411e-06
1.35601e-06
1.3411e-06
1.3411e-06
1.37091e-06
1.35601e-06
1.35601e-06
1.37091e-06
1.37091e-06
1.37091e-06
1.37091e-06
1.35601e-06
1.35601e-06
1.35601e-06
1.3411e-06
)
;

boundaryField
{
    inlet
    {
        type            calculated;
        value           uniform -1.225e-06;
    }
    outlet
    {
        type            calculated;
        value           uniform 1.37091e-06;
    }
    yzfaces
    {
        type            empty;
    }
}


// ************************************************************************* //
