/*--------------------------------*- C++ -*----------------------------------*\
| =========                 |                                                 |
| \\      /  F ield         | foam-extend: Open Source CFD                    |
|  \\    /   O peration     | Version:     5.0                                |
|   \\  /    A nd           | Web:         http://www.foam-extend.org         |
|    \\/     M anipulation  |                                                 |
\*---------------------------------------------------------------------------*/
FoamFile
{
    version     2.0;
    format      ascii;
    class       volVectorField;
    location    "7";
    object      U.gas;
}
// * * * * * * * * * * * * * * * * * * * * * * * * * * * * * * * * * * * * * //

dimensions      [0 1 -1 0 0 0 0];

internalField   nonuniform List<vector> 
100
(
(8.52438e-05 0 0)
(0.000190369 0 0)
(0.000288465 0 0)
(0.000384082 0 0)
(0.000477761 0 0)
(0.000569746 0 0)
(0.000662273 0 0)
(0.000754676 0 0)
(0.000846629 0 0)
(0.000938595 0 0)
(0.00103078 0 0)
(0.00112354 0 0)
(0.00121795 0 0)
(0.00131265 0 0)
(0.00140767 0 0)
(0.00150567 0 0)
(0.00160568 0 0)
(0.00170726 0 0)
(0.00181079 0 0)
(0.00192075 0 0)
(0.00203436 0 0)
(0.00215157 0 0)
(0.00228278 0 0)
(0.00242174 0 0)
(0.00258136 0 0)
(0.00276852 0 0)
(0.0029964 0 0)
(0.00329757 0 0)
(0.00371918 0 0)
(0.00439311 0 0)
(0.00550125 0 0)
(0.00626742 0 0)
(0.00574806 0 0)
(0.00539027 0 0)
(0.00521193 0 0)
(0.00513784 0 0)
(0.00505872 0 0)
(0.00506902 0 0)
(0.005102 0 0)
(0.00509613 0 0)
(0.00506757 0 0)
(0.00506538 0 0)
(0.00515835 0 0)
(0.00523265 0 0)
(0.00526114 0 0)
(0.00529144 0 0)
(0.00538267 0 0)
(0.00535225 0 0)
(0.0052002 0 0)
(0.00523061 0 0)
(0.00529143 0 0)
(0.00529143 0 0)
(0.00535225 0 0)
(0.00538266 0 0)
(0.00544349 0 0)
(0.0054739 0 0)
(0.00541307 0 0)
(0.00544349 0 0)
(0.0054739 0 0)
(0.00544349 0 0)
(0.00538266 0 0)
(0.00538266 0 0)
(0.00541307 0 0)
(0.00544349 0 0)
(0.00541307 0 0)
(0.00538266 0 0)
(0.00535225 0 0)
(0.00532184 0 0)
(0.00526102 0 0)
(0.00523061 0 0)
(0.00523061 0 0)
(0.0052002 0 0)
(0.00529143 0 0)
(0.00538266 0 0)
(0.00535225 0 0)
(0.00529143 0 0)
(0.00535225 0 0)
(0.00538266 0 0)
(0.00541307 0 0)
(0.00550431 0 0)
(0.00544349 0 0)
(0.0054739 0 0)
(0.00550431 0 0)
(0.00544349 0 0)
(0.0054739 0 0)
(0.00550431 0 0)
(0.00550431 0 0)
(0.0054739 0 0)
(0.00553472 0 0)
(0.00556513 0 0)
(0.00553472 0 0)
(0.00556513 0 0)
(0.00559554 0 0)
(0.00559554 0 0)
(0.00559554 0 0)
(0.00556513 0 0)
(0.00553472 0 0)
(0.00553472 0 0)
(0.00550431 0 0)
(0.00553472 0 0)
)
;

boundaryField
{
    inlet
    {
        type            fixedValue;
        value           uniform (0 0 0);
    }
    outlet
    {
        type            zeroGradient;
    }
    yzfaces
    {
        type            empty;
    }
}


// ************************************************************************* //
