/*--------------------------------*- C++ -*----------------------------------*\
| =========                 |                                                 |
| \\      /  F ield         | foam-extend: Open Source CFD                    |
|  \\    /   O peration     | Version:     5.0                                |
|   \\  /    A nd           | Web:         http://www.foam-extend.org         |
|    \\/     M anipulation  |                                                 |
\*---------------------------------------------------------------------------*/
FoamFile
{
    version     2.0;
    format      ascii;
    class       volScalarField;
    location    "7";
    object      XH2O;
}
// * * * * * * * * * * * * * * * * * * * * * * * * * * * * * * * * * * * * * //

dimensions      [0 0 0 0 0 0 0];

internalField   nonuniform List<scalar> 
100
(
6.65108e+12
-1.56273e+13
2.68242e+13
-4.80317e+13
8.00445e+13
-1.24272e+14
1.6696e+14
-1.55809e+14
-5.93211e+13
8.36196e+14
-2.89968e+15
7.418e+15
-1.5433e+16
2.49181e+16
-2.10817e+16
-4.92679e+16
3.33254e+17
-1.16187e+18
3.10584e+18
-6.61753e+18
9.90716e+18
-1.06606e+18
-6.63662e+19
3.38661e+20
-1.22308e+21
3.73607e+21
-1.01862e+22
2.53202e+22
-5.77611e+22
1.21078e+23
-2.32972e+23
4.16264e+23
-7.36985e+23
1.54314e+24
-4.27824e+24
1.25329e+25
-2.62529e+25
5.91696e+24
1.50406e+26
1.88644e+26
-6.96531e+27
2.05199e+28
3.73225e+29
1.18134e+30
2.10426e+30
2.21622e+30
3.15759e+29
3.16698e+27
2.51527e+24
1.68173e+20
9.77165e+14
4.9838e+08
21.4714
8.15854e-08
2.66142e-17
7.72555e-28
1.93629e-39
4.26593e-52
8.14283e-66
1.40679e-80
2.13858e-96
2.83021e-113
3.3873e-131
3.56065e-150
3.31903e-170
2.73719e-191
2.00302e-213
1.29817e-236
7.46737e-261
3.78205e-286
1.68165e-312
0
0
0
0
0
0
0
0
0
0
0
0
0
0
0
0
0
0
0
0
0
0
0
0
0
0
0
0
0
)
;

boundaryField
{
    inlet
    {
        type            fixedValue;
        value           uniform 0.5;
    }
    outlet
    {
        type            zeroGradient;
    }
    yzfaces
    {
        type            empty;
    }
}


// ************************************************************************* //
