/*--------------------------------*- C++ -*----------------------------------*\
| =========                 |                                                 |
| \\      /  F ield         | foam-extend: Open Source CFD                    |
|  \\    /   O peration     | Version:     5.0                                |
|   \\  /    A nd           | Web:         http://www.foam-extend.org         |
|    \\/     M anipulation  |                                                 |
\*---------------------------------------------------------------------------*/
FoamFile
{
    version     2.0;
    format      ascii;
    class       surfaceScalarField;
    location    "2";
    object      phi;
}
// * * * * * * * * * * * * * * * * * * * * * * * * * * * * * * * * * * * * * //

dimensions      [0 3 -1 0 0 0 0];

internalField   nonuniform List<scalar> 
99
(
1.22479e-06
1.22e-06
1.2265e-06
1.22644e-06
1.22486e-06
1.22369e-06
1.22585e-06
1.23416e-06
1.22425e-06
1.23373e-06
1.23362e-06
1.23182e-06
1.23373e-06
1.22792e-06
1.22881e-06
1.23322e-06
1.23226e-06
1.23132e-06
1.23213e-06
1.23307e-06
1.23018e-06
1.23545e-06
1.234e-06
1.23365e-06
1.23189e-06
1.23298e-06
1.23277e-06
1.22932e-06
1.23174e-06
1.23324e-06
1.2312e-06
1.23205e-06
1.23236e-06
1.23355e-06
1.23378e-06
1.2336e-06
1.2329e-06
1.23431e-06
1.23074e-06
1.23553e-06
1.23205e-06
1.23129e-06
1.23473e-06
1.23166e-06
1.23222e-06
1.23207e-06
1.23181e-06
1.23297e-06
1.23173e-06
1.2321e-06
1.23193e-06
1.23312e-06
1.23191e-06
1.23246e-06
1.23232e-06
1.23306e-06
1.23261e-06
1.23307e-06
1.23307e-06
1.2333e-06
1.2333e-06
1.2333e-06
1.23307e-06
1.2333e-06
1.23354e-06
1.23354e-06
1.23377e-06
1.23377e-06
1.234e-06
1.23447e-06
1.23424e-06
1.23424e-06
1.23447e-06
1.23447e-06
1.2347e-06
1.23493e-06
1.2354e-06
1.23587e-06
1.2354e-06
1.2354e-06
1.23517e-06
1.2347e-06
1.23517e-06
1.2354e-06
1.23493e-06
1.23517e-06
1.23493e-06
1.2347e-06
1.23493e-06
1.23447e-06
1.2347e-06
1.23447e-06
1.234e-06
1.234e-06
1.23424e-06
1.234e-06
1.23377e-06
1.2333e-06
1.23354e-06
)
;

boundaryField
{
    inlet
    {
        type            calculated;
        value           uniform -1.225e-06;
    }
    outlet
    {
        type            calculated;
        value           uniform 1.23261e-06;
    }
    yzfaces
    {
        type            empty;
    }
}


// ************************************************************************* //
