/*--------------------------------*- C++ -*----------------------------------*\
| =========                 |                                                 |
| \\      /  F ield         | foam-extend: Open Source CFD                    |
|  \\    /   O peration     | Version:     5.0                                |
|   \\  /    A nd           | Web:         http://www.foam-extend.org         |
|    \\/     M anipulation  |                                                 |
\*---------------------------------------------------------------------------*/
FoamFile
{
    version     2.0;
    format      ascii;
    class       volVectorField;
    location    "2";
    object      U.water;
}
// * * * * * * * * * * * * * * * * * * * * * * * * * * * * * * * * * * * * * //

dimensions      [0 1 -1 0 0 0 0];

internalField   nonuniform List<vector> 
100
(
(2.59035e-05 0 0)
(7.14668e-05 0 0)
(0.000121487 0 0)
(0.000181559 0 0)
(0.000236189 0 0)
(0.000293679 0 0)
(0.000355199 0 0)
(0.000427487 0 0)
(0.000479599 0 0)
(0.000530556 0 0)
(0.00060304 0 0)
(0.000661161 0 0)
(0.000720303 0 0)
(0.000773264 0 0)
(0.000826761 0 0)
(0.000893368 0 0)
(0.000955539 0 0)
(0.00101044 0 0)
(0.00106619 0 0)
(0.0011261 0 0)
(0.00118086 0 0)
(0.0012416 0 0)
(0.00130804 0 0)
(0.00136334 0 0)
(0.00141789 0 0)
(0.00147778 0 0)
(0.0015399 0 0)
(0.00159279 0 0)
(0.00165027 0 0)
(0.00171767 0 0)
(0.00177966 0 0)
(0.00184167 0 0)
(0.00190779 0 0)
(0.00197415 0 0)
(0.00204298 0 0)
(0.00211062 0 0)
(0.00217809 0 0)
(0.00225348 0 0)
(0.00232784 0 0)
(0.00241063 0 0)
(0.00249866 0 0)
(0.00258162 0 0)
(0.00268467 0 0)
(0.00279383 0 0)
(0.00290762 0 0)
(0.00304095 0 0)
(0.00319343 0 0)
(0.00337437 0 0)
(0.00358882 0 0)
(0.00384847 0 0)
(0.00416528 0 0)
(0.0045224 0 0)
(0.00483103 0 0)
(0.00498839 0 0)
(0.00502742 0 0)
(0.00503137 0 0)
(0.00503197 0 0)
(0.00503199 0 0)
(0.00503294 0 0)
(0.00503342 0 0)
(0.00503389 0 0)
(0.00503389 0 0)
(0.00503342 0 0)
(0.00503342 0 0)
(0.00503437 0 0)
(0.00503484 0 0)
(0.00503532 0 0)
(0.00503579 0 0)
(0.00503627 0 0)
(0.00503769 0 0)
(0.00503817 0 0)
(0.00503769 0 0)
(0.00503817 0 0)
(0.00503865 0 0)
(0.00503912 0 0)
(0.00504007 0 0)
(0.0050415 0 0)
(0.0050434 0 0)
(0.0050434 0 0)
(0.00504245 0 0)
(0.00504197 0 0)
(0.00504055 0 0)
(0.00504055 0 0)
(0.00504197 0 0)
(0.0050415 0 0)
(0.00504102 0 0)
(0.00504102 0 0)
(0.00504007 0 0)
(0.00504007 0 0)
(0.0050396 0 0)
(0.00503912 0 0)
(0.00503912 0 0)
(0.00503769 0 0)
(0.00503674 0 0)
(0.00503722 0 0)
(0.00503722 0 0)
(0.00503627 0 0)
(0.00503484 0 0)
(0.00503437 0 0)
(0.00503294 0 0)
)
;

boundaryField
{
    inlet
    {
        type            fixedValue;
        value           uniform (0 0 0);
    }
    outlet
    {
        type            zeroGradient;
    }
    yzfaces
    {
        type            empty;
    }
}


// ************************************************************************* //
