/*--------------------------------*- C++ -*----------------------------------*\
| =========                 |                                                 |
| \\      /  F ield         | foam-extend: Open Source CFD                    |
|  \\    /   O peration     | Version:     5.0                                |
|   \\  /    A nd           | Web:         http://www.foam-extend.org         |
|    \\/     M anipulation  |                                                 |
\*---------------------------------------------------------------------------*/
FoamFile
{
    version     2.0;
    format      ascii;
    class       surfaceScalarField;
    location    "7";
    object      phi;
}
// * * * * * * * * * * * * * * * * * * * * * * * * * * * * * * * * * * * * * //

dimensions      [0 3 -1 0 0 0 0];

internalField   nonuniform List<scalar> 
99
(
1.22357e-06
1.22588e-06
1.2199e-06
1.2229e-06
1.2221e-06
1.22525e-06
1.22085e-06
1.22075e-06
1.21761e-06
1.20935e-06
1.20625e-06
1.20926e-06
1.21426e-06
1.20796e-06
1.20333e-06
1.19967e-06
1.20618e-06
1.19531e-06
1.2023e-06
1.20176e-06
1.20617e-06
1.20364e-06
1.20271e-06
1.20329e-06
1.2065e-06
1.20371e-06
1.2032e-06
1.20767e-06
1.20669e-06
1.20594e-06
1.20748e-06
1.20688e-06
1.20742e-06
1.20388e-06
1.20188e-06
1.20375e-06
1.20275e-06
1.20512e-06
1.2039e-06
1.19872e-06
1.1985e-06
1.19796e-06
1.20386e-06
1.20155e-06
1.20535e-06
1.20071e-06
1.19947e-06
1.20451e-06
1.20509e-06
1.20561e-06
1.20292e-06
1.20905e-06
1.21234e-06
1.20699e-06
1.20461e-06
1.20782e-06
1.20861e-06
1.21004e-06
1.20595e-06
1.20966e-06
1.20506e-06
1.20717e-06
1.20763e-06
1.20826e-06
1.20574e-06
1.205e-06
1.20744e-06
1.20485e-06
1.20489e-06
1.20688e-06
1.20553e-06
1.20876e-06
1.20579e-06
1.20786e-06
1.20678e-06
1.20779e-06
1.20846e-06
1.2075e-06
1.20504e-06
1.20608e-06
1.20481e-06
1.20592e-06
1.20585e-06
1.20581e-06
1.20498e-06
1.20496e-06
1.20247e-06
1.2059e-06
1.20276e-06
1.20487e-06
1.20654e-06
1.20559e-06
1.20692e-06
1.20717e-06
1.20636e-06
1.20699e-06
1.2089e-06
1.20818e-06
1.20492e-06
)
;

boundaryField
{
    inlet
    {
        type            calculated;
        value           uniform -1.225e-06;
    }
    outlet
    {
        type            calculated;
        value           uniform 1.2065e-06;
    }
    yzfaces
    {
        type            empty;
    }
}


// ************************************************************************* //
