/*--------------------------------*- C++ -*----------------------------------*\
| =========                 |                                                 |
| \\      /  F ield         | foam-extend: Open Source CFD                    |
|  \\    /   O peration     | Version:     5.0                                |
|   \\  /    A nd           | Web:         http://www.foam-extend.org         |
|    \\/     M anipulation  |                                                 |
\*---------------------------------------------------------------------------*/
FoamFile
{
    version     2.0;
    format      ascii;
    class       volScalarField;
    location    "6";
    object      alpha.gas;
}
// * * * * * * * * * * * * * * * * * * * * * * * * * * * * * * * * * * * * * //

dimensions      [0 0 0 0 0 0 0];

internalField   nonuniform List<scalar> 
100
(
0.0866367
0.085129
0.0837167
0.0823649
0.0809791
0.0796697
0.0783741
0.07699
0.0757575
0.0745922
0.0734271
0.0722302
0.0711259
0.0701259
0.069025
0.0679989
0.0670202
0.0660249
0.0650786
0.0641981
0.0633181
0.0624561
0.0616279
0.0608043
0.0600313
0.0593361
0.0585617
0.0578396
0.0571687
0.0565007
0.0558363
0.0552325
0.0545521
0.0539659
0.0534636
0.0528179
0.0522721
0.0517068
0.0511504
0.0506216
0.0501112
0.0495704
0.0491241
0.0486245
0.0482135
0.0477405
0.0473293
0.0468863
0.0464791
0.0460796
0.0456922
0.045289
0.0448744
0.0445165
0.0441279
0.0437692
0.0434056
0.0430394
0.0426832
0.0423506
0.0419907
0.041669
0.0413604
0.0410343
0.0407343
0.0404073
0.0401227
0.0398156
0.0395007
0.039223
0.0389466
0.0386606
0.0383809
0.038116
0.0378385
0.0375669
0.0373201
0.0370623
0.0368037
0.0365507
0.0363067
0.0360751
0.0358303
0.0355745
0.0353517
0.0351107
0.0348704
0.0346607
0.0344119
0.0341807
0.0339436
0.0337519
0.0335248
0.0333047
0.0330841
0.032893
0.0326758
0.0324954
0.0323481
0.0322495
)
;

boundaryField
{
    inlet
    {
        type            fixedValue;
        value           uniform 0.2;
    }
    outlet
    {
        type            zeroGradient;
    }
    yzfaces
    {
        type            empty;
    }
}


// ************************************************************************* //
