/*--------------------------------*- C++ -*----------------------------------*\
| =========                 |                                                 |
| \\      /  F ield         | foam-extend: Open Source CFD                    |
|  \\    /   O peration     | Version:     5.0                                |
|   \\  /    A nd           | Web:         http://www.foam-extend.org         |
|    \\/     M anipulation  |                                                 |
\*---------------------------------------------------------------------------*/
FoamFile
{
    version     2.0;
    format      ascii;
    class       volVectorField;
    location    "6";
    object      U.gas;
}
// * * * * * * * * * * * * * * * * * * * * * * * * * * * * * * * * * * * * * //

dimensions      [0 1 -1 0 0 0 0];

internalField   nonuniform List<vector> 
100
(
(0.0115271 0 0)
(0.0117055 0 0)
(0.0118847 0 0)
(0.0120299 0 0)
(0.0122018 0 0)
(0.0123764 0 0)
(0.0125066 0 0)
(0.012677 0 0)
(0.0128285 0 0)
(0.0130032 0 0)
(0.0132075 0 0)
(0.0133961 0 0)
(0.0135499 0 0)
(0.0136744 0 0)
(0.0138702 0 0)
(0.0140517 0 0)
(0.0142094 0 0)
(0.0143849 0 0)
(0.0145442 0 0)
(0.0146964 0 0)
(0.0148438 0 0)
(0.0149889 0 0)
(0.0151518 0 0)
(0.0153105 0 0)
(0.0154415 0 0)
(0.015557 0 0)
(0.0157214 0 0)
(0.0158845 0 0)
(0.0160283 0 0)
(0.0161568 0 0)
(0.0162724 0 0)
(0.0163859 0 0)
(0.0165262 0 0)
(0.01667 0 0)
(0.0167707 0 0)
(0.0169051 0 0)
(0.0170417 0 0)
(0.0171603 0 0)
(0.0172606 0 0)
(0.0173617 0 0)
(0.0174741 0 0)
(0.0176001 0 0)
(0.0176821 0 0)
(0.0177884 0 0)
(0.017863 0 0)
(0.0179723 0 0)
(0.0180606 0 0)
(0.0181663 0 0)
(0.0182646 0 0)
(0.0183608 0 0)
(0.0184383 0 0)
(0.0185091 0 0)
(0.0185904 0 0)
(0.0186463 0 0)
(0.0187273 0 0)
(0.018801 0 0)
(0.0188697 0 0)
(0.018944 0 0)
(0.0190236 0 0)
(0.019104 0 0)
(0.0191926 0 0)
(0.0192581 0 0)
(0.0193252 0 0)
(0.019387 0 0)
(0.0194283 0 0)
(0.0194968 0 0)
(0.0195456 0 0)
(0.0196106 0 0)
(0.0196854 0 0)
(0.0197314 0 0)
(0.0197793 0 0)
(0.0198472 0 0)
(0.0199135 0 0)
(0.0199684 0 0)
(0.0200369 0 0)
(0.0201048 0 0)
(0.0201607 0 0)
(0.0202052 0 0)
(0.020249 0 0)
(0.0202871 0 0)
(0.020329 0 0)
(0.0203742 0 0)
(0.0204135 0 0)
(0.0204657 0 0)
(0.0205034 0 0)
(0.0205517 0 0)
(0.0206004 0 0)
(0.0206368 0 0)
(0.0207068 0 0)
(0.0207673 0 0)
(0.0208387 0 0)
(0.0208612 0 0)
(0.0208952 0 0)
(0.0209269 0 0)
(0.0209681 0 0)
(0.0210004 0 0)
(0.0210423 0 0)
(0.0210746 0 0)
(0.0210896 0 0)
(0.0210581 0 0)
)
;

boundaryField
{
    inlet
    {
        type            fixedValue;
        value           uniform (0.005 0 0);
    }
    outlet
    {
        type            zeroGradient;
    }
    yzfaces
    {
        type            empty;
    }
}


// ************************************************************************* //
