/*--------------------------------*- C++ -*----------------------------------*\
| =========                 |                                                 |
| \\      /  F ield         | foam-extend: Open Source CFD                    |
|  \\    /   O peration     | Version:     5.0                                |
|   \\  /    A nd           | Web:         http://www.foam-extend.org         |
|    \\/     M anipulation  |                                                 |
\*---------------------------------------------------------------------------*/
FoamFile
{
    version     2.0;
    format      ascii;
    class       volScalarField;
    location    "6";
    object      YH2O;
}
// * * * * * * * * * * * * * * * * * * * * * * * * * * * * * * * * * * * * * //

dimensions      [0 0 0 0 0 0 0];

internalField   nonuniform List<scalar> 
100
(
-0.0035142
0.00353784
-0.00419322
0.00278999
-0.00215792
0.00304209
-0.00185078
0.00335784
-0.00173484
0.000840991
0.00169588
-0.0024367
0.00303198
-0.00431994
-0.000270566
-0.00660953
-0.000727266
-0.00201983
-0.00116563
-0.00149823
-0.00182076
0.00120676
-0.00240778
0.000551464
-0.000942094
0.00210456
-0.00141038
-0.000588564
-0.000809031
0.000414857
-0.00229799
5.0692e-05
-0.00261669
0.000910837
-0.000906208
0.000352475
0.00075536
-0.00106908
-0.00118762
-0.00200459
0.00173062
9.48478e-05
0.00108368
-0.000684365
0.000350408
0.000899091
-0.000677279
0.00111808
-0.00264973
0.00316703
-0.00313519
0.00333471
-0.00492115
0.00496103
-0.00698869
0.00570756
-0.0085238
0.00534234
-0.00975404
0.00819091
-0.0102872
0.0100352
-0.00871387
0.0101466
-0.00914374
0.0106488
-0.00840557
0.00988661
-0.00694534
0.0083076
-0.0072619
0.0070892
-0.00386417
0.00397971
-0.00150957
0.00192876
-0.00172458
0.00306965
-0.00224464
0.00098924
-0.00126187
0.000372386
-0.000123531
4.68867e-06
0.00139532
0.000242597
-0.000332044
-0.000109919
-4.79837e-05
0.000463642
0.000147179
-0.000150281
0.000196812
0.000735726
-0.0018367
0.00130997
-0.00201789
0.000289072
-0.00172192
-2.94053e-05
)
;

boundaryField
{
    inlet
    {
        type            calculated;
        value           uniform 0;
    }
    outlet
    {
        type            calculated;
        value           uniform -2.94053e-05;
    }
    yzfaces
    {
        type            empty;
    }
}


// ************************************************************************* //
