/*--------------------------------*- C++ -*----------------------------------*\
| =========                 |                                                 |
| \\      /  F ield         | foam-extend: Open Source CFD                    |
|  \\    /   O peration     | Version:     5.0                                |
|   \\  /    A nd           | Web:         http://www.foam-extend.org         |
|    \\/     M anipulation  |                                                 |
\*---------------------------------------------------------------------------*/
FoamFile
{
    version     2.0;
    format      ascii;
    class       volVectorField;
    location    "10";
    object      U.gas;
}
// * * * * * * * * * * * * * * * * * * * * * * * * * * * * * * * * * * * * * //

dimensions      [0 1 -1 0 0 0 0];

internalField   nonuniform List<vector> 
100
(
(5.61305e-05 0 0)
(0.000125487 0 0)
(0.000190031 0 0)
(0.000252482 0 0)
(0.000314008 0 0)
(0.000374959 0 0)
(0.00043519 0 0)
(0.000494588 0 0)
(0.000553527 0 0)
(0.000612179 0 0)
(0.000671161 0 0)
(0.000730725 0 0)
(0.000790513 0 0)
(0.000849509 0 0)
(0.000907811 0 0)
(0.000966919 0 0)
(0.00102636 0 0)
(0.00108562 0 0)
(0.00114469 0 0)
(0.00120339 0 0)
(0.00126427 0 0)
(0.00132327 0 0)
(0.00138428 0 0)
(0.00144695 0 0)
(0.00150674 0 0)
(0.00156704 0 0)
(0.00163121 0 0)
(0.00169454 0 0)
(0.0017586 0 0)
(0.00182109 0 0)
(0.0018868 0 0)
(0.00195645 0 0)
(0.00202631 0 0)
(0.00209484 0 0)
(0.00216726 0 0)
(0.00224542 0 0)
(0.00232452 0 0)
(0.0024059 0 0)
(0.00249474 0 0)
(0.00259227 0 0)
(0.00269921 0 0)
(0.00281975 0 0)
(0.00295967 0 0)
(0.00313286 0 0)
(0.00334881 0 0)
(0.00364417 0 0)
(0.00408584 0 0)
(0.00480298 0 0)
(0.00590585 0 0)
(0.00635952 0 0)
(0.00583659 0 0)
(0.0055687 0 0)
(0.00545231 0 0)
(0.00535733 0 0)
(0.00532924 0 0)
(0.00528131 0 0)
(0.00520965 0 0)
(0.00514947 0 0)
(0.00509528 0 0)
(0.00508812 0 0)
(0.00513 0 0)
(0.00518127 0 0)
(0.00516797 0 0)
(0.00516078 0 0)
(0.00518897 0 0)
(0.00515677 0 0)
(0.00516973 0 0)
(0.00518313 0 0)
(0.0051509 0 0)
(0.00512164 0 0)
(0.00507315 0 0)
(0.00505545 0 0)
(0.0050398 0 0)
(0.0049769 0 0)
(0.00494627 0 0)
(0.00497621 0 0)
(0.00497572 0 0)
(0.00496053 0 0)
(0.00499205 0 0)
(0.00497723 0 0)
(0.00496117 0 0)
(0.00499359 0 0)
(0.00500989 0 0)
(0.0049785 0 0)
(0.00486764 0 0)
(0.00483741 0 0)
(0.00491619 0 0)
(0.00494799 0 0)
(0.00491648 0 0)
(0.00496511 0 0)
(0.00502949 0 0)
(0.00507738 0 0)
(0.00512538 0 0)
(0.00514276 0 0)
(0.00516037 0 0)
(0.00519472 0 0)
(0.0052453 0 0)
(0.00521132 0 0)
(0.00523127 0 0)
(0.00537878 0 0)
)
;

boundaryField
{
    inlet
    {
        type            fixedValue;
        value           uniform (0 0 0);
    }
    outlet
    {
        type            zeroGradient;
    }
    yzfaces
    {
        type            empty;
    }
}


// ************************************************************************* //
