/*--------------------------------*- C++ -*----------------------------------*\
| =========                 |                                                 |
| \\      /  F ield         | foam-extend: Open Source CFD                    |
|  \\    /   O peration     | Version:     5.0                                |
|   \\  /    A nd           | Web:         http://www.foam-extend.org         |
|    \\/     M anipulation  |                                                 |
\*---------------------------------------------------------------------------*/
FoamFile
{
    version     2.0;
    format      ascii;
    class       volScalarField;
    location    "10";
    object      XCO2;
}
// * * * * * * * * * * * * * * * * * * * * * * * * * * * * * * * * * * * * * //

dimensions      [0 0 0 0 0 0 0];

internalField   nonuniform List<scalar> 
100
(
-0.000770171
-0.00603306
0.00534336
-0.00861205
0.00822347
-0.00830868
0.00923089
-0.00902251
0.0115551
-0.0121614
0.0152784
-0.0147789
0.0167562
-0.0140516
0.0145834
-0.0116441
0.0111138
-0.00939195
0.00740049
-0.00677117
0.00359359
-0.00377043
0.00130894
-0.00293624
0.00323495
-0.0061834
0.00753783
-0.00757018
0.0057368
-0.000334418
-0.00540407
0.0133178
-0.020253
0.0249801
-0.0263491
0.0265601
-0.0196636
0.0160984
-0.00985489
-0.0040511
-0.00125447
-0.0153104
0.00157424
0.011868
0.0246792
0.0918758
0.106624
0.2192
0.267864
0.37377
0.504964
0.569762
0.721253
0.830646
0.86992
0.955281
1.00695
0.986337
0.920952
1.02381
0.933302
1.05225
0.9887
0.921884
0.980854
1.0618
1.07676
0.84354
1.18736
0.992838
1.01791
0.893871
1.11767
1.00271
0.850603
1.1122
1.0246
1.02524
1.02527
1.17585
0.907282
0.991571
0.923036
1.02967
0.897264
1.02133
0.99515
0.893274
1.1869
0.9635
1.03725
0.955616
0.904872
1.04991
1.04994
1.03425
1.03611
1.00862
1.17513
0.37509
)
;

boundaryField
{
    inlet
    {
        type            fixedValue;
        value           uniform 0;
    }
    outlet
    {
        type            zeroGradient;
    }
    yzfaces
    {
        type            empty;
    }
}


// ************************************************************************* //
