/*--------------------------------*- C++ -*----------------------------------*\
| =========                 |                                                 |
| \\      /  F ield         | foam-extend: Open Source CFD                    |
|  \\    /   O peration     | Version:     5.0                                |
|   \\  /    A nd           | Web:         http://www.foam-extend.org         |
|    \\/     M anipulation  |                                                 |
\*---------------------------------------------------------------------------*/
FoamFile
{
    version     2.0;
    format      ascii;
    class       volScalarField;
    location    "6";
    object      alpha.gas;
}
// * * * * * * * * * * * * * * * * * * * * * * * * * * * * * * * * * * * * * //

dimensions      [0 0 0 0 0 0 0];

internalField   nonuniform List<scalar> 
100
(
0.135262
0.118472
0.107901
0.100601
0.0949902
0.0906519
0.0870459
0.0838775
0.0807574
0.0782279
0.0756971
0.0737161
0.0719301
0.0702651
0.0688417
0.0674002
0.0660854
0.0648492
0.0637269
0.0627317
0.0617622
0.0607078
0.0596905
0.0587701
0.0578501
0.0569799
0.0561249
0.0555774
0.0549198
0.0543063
0.0536315
0.0530143
0.0524924
0.0520248
0.0515342
0.0510014
0.0504444
0.0498634
0.04937
0.0488329
0.0483766
0.0478433
0.047384
0.0469446
0.0464474
0.0460451
0.0456235
0.0452165
0.044799
0.0444077
0.0440191
0.0437124
0.0433531
0.0430528
0.0427134
0.0423937
0.0420979
0.0417738
0.0414472
0.0410863
0.0407304
0.0404331
0.0401713
0.0398622
0.0395653
0.0392661
0.0389526
0.0386899
0.0384212
0.0381844
0.0379406
0.0377027
0.0374172
0.0371445
0.0369212
0.0366269
0.0363705
0.0360885
0.0358238
0.0355979
0.0353784
0.0351781
0.0349928
0.0348219
0.0346091
0.0343952
0.0341371
0.033896
0.0336721
0.0334541
0.0332634
0.0330478
0.0328485
0.0326547
0.0324513
0.0322276
0.0320121
0.0318065
0.0315722
0.0313384
)
;

boundaryField
{
    inlet
    {
        type            fixedValue;
        value           uniform 0.2;
    }
    outlet
    {
        type            zeroGradient;
    }
    yzfaces
    {
        type            empty;
    }
}


// ************************************************************************* //
