/*--------------------------------*- C++ -*----------------------------------*\
| =========                 |                                                 |
| \\      /  F ield         | foam-extend: Open Source CFD                    |
|  \\    /   O peration     | Version:     5.0                                |
|   \\  /    A nd           | Web:         http://www.foam-extend.org         |
|    \\/     M anipulation  |                                                 |
\*---------------------------------------------------------------------------*/
FoamFile
{
    version     2.0;
    format      ascii;
    class       surfaceScalarField;
    location    "6";
    object      phi;
}
// * * * * * * * * * * * * * * * * * * * * * * * * * * * * * * * * * * * * * //

dimensions      [0 3 -1 0 0 0 0];

internalField   nonuniform List<scalar> 
99
(
1.22223e-06
1.2158e-06
1.21104e-06
1.20995e-06
1.21116e-06
1.21837e-06
1.22239e-06
1.22246e-06
1.22176e-06
1.22121e-06
1.2194e-06
1.22092e-06
1.21942e-06
1.22218e-06
1.22507e-06
1.22541e-06
1.22345e-06
1.22185e-06
1.2258e-06
1.22614e-06
1.22737e-06
1.22367e-06
1.22472e-06
1.22553e-06
1.22667e-06
1.22398e-06
1.22532e-06
1.22393e-06
1.22545e-06
1.2249e-06
1.22434e-06
1.22521e-06
1.22852e-06
1.22587e-06
1.22698e-06
1.22602e-06
1.22553e-06
1.22496e-06
1.22095e-06
1.22236e-06
1.22049e-06
1.22007e-06
1.22034e-06
1.21975e-06
1.22325e-06
1.22433e-06
1.22147e-06
1.22138e-06
1.21969e-06
1.22007e-06
1.22085e-06
1.22075e-06
1.22148e-06
1.2198e-06
1.21903e-06
1.22029e-06
1.22006e-06
1.21906e-06
1.21905e-06
1.21989e-06
1.22055e-06
1.22109e-06
1.22164e-06
1.2228e-06
1.22289e-06
1.22312e-06
1.2234e-06
1.22236e-06
1.22272e-06
1.22212e-06
1.22183e-06
1.22083e-06
1.2211e-06
1.22246e-06
1.22068e-06
1.22118e-06
1.22007e-06
1.22262e-06
1.22179e-06
1.22423e-06
1.22401e-06
1.22515e-06
1.22514e-06
1.2243e-06
1.22275e-06
1.22206e-06
1.2223e-06
1.2238e-06
1.22374e-06
1.22481e-06
1.22409e-06
1.22514e-06
1.22633e-06
1.22665e-06
1.227e-06
1.22755e-06
1.22701e-06
1.22645e-06
1.22645e-06
)
;

boundaryField
{
    inlet
    {
        type            calculated;
        value           uniform -1.225e-06;
    }
    outlet
    {
        type            calculated;
        value           uniform 1.22823e-06;
    }
    yzfaces
    {
        type            empty;
    }
}


// ************************************************************************* //
