/*--------------------------------*- C++ -*----------------------------------*\
| =========                 |                                                 |
| \\      /  F ield         | foam-extend: Open Source CFD                    |
|  \\    /   O peration     | Version:     5.0                                |
|   \\  /    A nd           | Web:         http://www.foam-extend.org         |
|    \\/     M anipulation  |                                                 |
\*---------------------------------------------------------------------------*/
FoamFile
{
    version     2.0;
    format      ascii;
    class       volVectorField;
    location    "6";
    object      U.gas;
}
// * * * * * * * * * * * * * * * * * * * * * * * * * * * * * * * * * * * * * //

dimensions      [0 1 -1 0 0 0 0];

internalField   nonuniform List<vector> 
100
(
(0.00736991 0 0)
(0.00834798 0 0)
(0.00908415 0 0)
(0.00967759 0 0)
(0.0102059 0 0)
(0.0106874 0 0)
(0.0111376 0 0)
(0.011532 0 0)
(0.0119234 0 0)
(0.0122499 0 0)
(0.0125928 0 0)
(0.0128735 0 0)
(0.0131407 0 0)
(0.0134063 0 0)
(0.0136633 0 0)
(0.0139204 0 0)
(0.0141319 0 0)
(0.0143254 0 0)
(0.0145368 0 0)
(0.0147394 0 0)
(0.0149271 0 0)
(0.0151127 0 0)
(0.0152902 0 0)
(0.0154785 0 0)
(0.0156734 0 0)
(0.015836 0 0)
(0.0159998 0 0)
(0.0161005 0 0)
(0.0162424 0 0)
(0.0163745 0 0)
(0.0165117 0 0)
(0.016642 0 0)
(0.0167783 0 0)
(0.0168812 0 0)
(0.0169779 0 0)
(0.0170977 0 0)
(0.017211 0 0)
(0.0173345 0 0)
(0.0174061 0 0)
(0.0175108 0 0)
(0.0176045 0 0)
(0.0177124 0 0)
(0.0178105 0 0)
(0.0179066 0 0)
(0.0180454 0 0)
(0.0181635 0 0)
(0.0182471 0 0)
(0.0183161 0 0)
(0.0183998 0 0)
(0.0184761 0 0)
(0.0185727 0 0)
(0.0186406 0 0)
(0.018734 0 0)
(0.0187894 0 0)
(0.0188508 0 0)
(0.0189256 0 0)
(0.0189991 0 0)
(0.0190658 0 0)
(0.0191308 0 0)
(0.0192227 0 0)
(0.0193146 0 0)
(0.0193832 0 0)
(0.019446 0 0)
(0.0195342 0 0)
(0.0196079 0 0)
(0.0196771 0 0)
(0.0197527 0 0)
(0.019796 0 0)
(0.0198491 0 0)
(0.019894 0 0)
(0.0199412 0 0)
(0.0199794 0 0)
(0.0200403 0 0)
(0.0201087 0 0)
(0.0201422 0 0)
(0.0202043 0 0)
(0.020245 0 0)
(0.0203191 0 0)
(0.0203839 0 0)
(0.0204345 0 0)
(0.020495 0 0)
(0.020537 0 0)
(0.0205781 0 0)
(0.0206006 0 0)
(0.0206279 0 0)
(0.0206484 0 0)
(0.0207016 0 0)
(0.0207563 0 0)
(0.0208042 0 0)
(0.0208501 0 0)
(0.0208801 0 0)
(0.0209241 0 0)
(0.0209723 0 0)
(0.0210156 0 0)
(0.0210563 0 0)
(0.0211044 0 0)
(0.0211349 0 0)
(0.0211529 0 0)
(0.0211897 0 0)
(0.0212419 0 0)
)
;

boundaryField
{
    inlet
    {
        type            fixedValue;
        value           uniform (0.005 0 0);
    }
    outlet
    {
        type            zeroGradient;
    }
    yzfaces
    {
        type            empty;
    }
}


// ************************************************************************* //
