/*--------------------------------*- C++ -*----------------------------------*\
| =========                 |                                                 |
| \\      /  F ield         | foam-extend: Open Source CFD                    |
|  \\    /   O peration     | Version:     5.0                                |
|   \\  /    A nd           | Web:         http://www.foam-extend.org         |
|    \\/     M anipulation  |                                                 |
\*---------------------------------------------------------------------------*/
FoamFile
{
    version     2.0;
    format      ascii;
    class       volVectorField;
    location    "6";
    object      U.water;
}
// * * * * * * * * * * * * * * * * * * * * * * * * * * * * * * * * * * * * * //

dimensions      [0 1 -1 0 0 0 0];

internalField   nonuniform List<vector> 
100
(
(3.09187e-05 0 0)
(7.4969e-05 0 0)
(0.000112473 0 0)
(0.000146757 0 0)
(0.000178516 0 0)
(0.000208575 0 0)
(0.000236821 0 0)
(0.000263732 0 0)
(0.000291297 0 0)
(0.000318993 0 0)
(0.000345386 0 0)
(0.000372702 0 0)
(0.000397025 0 0)
(0.000420653 0 0)
(0.000444298 0 0)
(0.000467264 0 0)
(0.000490004 0 0)
(0.000511206 0 0)
(0.000533148 0 0)
(0.000554873 0 0)
(0.000575109 0 0)
(0.000595647 0 0)
(0.000617686 0 0)
(0.000640312 0 0)
(0.000662595 0 0)
(0.000684751 0 0)
(0.000707061 0 0)
(0.00072615 0 0)
(0.000742475 0 0)
(0.000761208 0 0)
(0.000779807 0 0)
(0.00079977 0 0)
(0.000818859 0 0)
(0.000834934 0 0)
(0.000850193 0 0)
(0.000867236 0 0)
(0.000885503 0 0)
(0.000904802 0 0)
(0.000922743 0 0)
(0.000940469 0 0)
(0.000959219 0 0)
(0.00097749 0 0)
(0.000996982 0 0)
(0.00101492 0 0)
(0.00103534 0 0)
(0.0010566 0 0)
(0.00107393 0 0)
(0.00109114 0 0)
(0.00110863 0 0)
(0.00112689 0 0)
(0.00114589 0 0)
(0.00116289 0 0)
(0.00117877 0 0)
(0.00119473 0 0)
(0.00120964 0 0)
(0.00122657 0 0)
(0.00124281 0 0)
(0.00125837 0 0)
(0.00127546 0 0)
(0.00129437 0 0)
(0.00131478 0 0)
(0.001334 0 0)
(0.00135059 0 0)
(0.0013679 0 0)
(0.00138654 0 0)
(0.00140436 0 0)
(0.00142294 0 0)
(0.00144048 0 0)
(0.00145665 0 0)
(0.00147234 0 0)
(0.00148679 0 0)
(0.00150173 0 0)
(0.00151834 0 0)
(0.00153783 0 0)
(0.0015546 0 0)
(0.00157096 0 0)
(0.0015896 0 0)
(0.00160897 0 0)
(0.00162927 0 0)
(0.0016481 0 0)
(0.00166565 0 0)
(0.00168183 0 0)
(0.00169707 0 0)
(0.00170978 0 0)
(0.00172247 0 0)
(0.00173714 0 0)
(0.00175449 0 0)
(0.00177509 0 0)
(0.00179449 0 0)
(0.00181263 0 0)
(0.00182928 0 0)
(0.00184597 0 0)
(0.00186473 0 0)
(0.00188209 0 0)
(0.00189907 0 0)
(0.00191756 0 0)
(0.00193637 0 0)
(0.00195376 0 0)
(0.00197222 0 0)
(0.00199349 0 0)
)
;

boundaryField
{
    inlet
    {
        type            fixedValue;
        value           uniform (0 0 0);
    }
    outlet
    {
        type            zeroGradient;
    }
    yzfaces
    {
        type            empty;
    }
}


// ************************************************************************* //
