/*--------------------------------*- C++ -*----------------------------------*\
| =========                 |                                                 |
| \\      /  F ield         | foam-extend: Open Source CFD                    |
|  \\    /   O peration     | Version:     5.0                                |
|   \\  /    A nd           | Web:         http://www.foam-extend.org         |
|    \\/     M anipulation  |                                                 |
\*---------------------------------------------------------------------------*/
FoamFile
{
    version     2.0;
    format      ascii;
    class       volScalarField;
    location    "5";
    object      alpha.gas;
}
// * * * * * * * * * * * * * * * * * * * * * * * * * * * * * * * * * * * * * //

dimensions      [0 0 0 0 0 0 0];

internalField   nonuniform List<scalar> 
100
(
0.0842335
0.0826216
0.0809702
0.0795109
0.0779931
0.0765168
0.075146
0.0737158
0.0724045
0.0710983
0.0697985
0.0686182
0.0674309
0.066252
0.0651568
0.0640856
0.0630131
0.0620491
0.0610864
0.0601871
0.05925
0.0584127
0.0575827
0.0567431
0.0559368
0.0552182
0.0544476
0.0537115
0.0530214
0.0523575
0.051724
0.0510743
0.0504875
0.0499221
0.0493395
0.0487599
0.0481994
0.047658
0.0471496
0.0466189
0.0461011
0.0455831
0.0450798
0.0446043
0.0441388
0.0436893
0.0432502
0.0428209
0.0423782
0.0419623
0.0415419
0.0411097
0.0407316
0.0403369
0.0399755
0.0395927
0.0392423
0.0388824
0.0385418
0.0381834
0.0378379
0.0375012
0.0371516
0.0368695
0.0365172
0.0362184
0.0359103
0.0355896
0.0352704
0.0349676
0.0346808
0.0343832
0.0340798
0.0337983
0.0334759
0.0331914
0.0328974
0.0326242
0.0323388
0.0320523
0.0317762
0.0314829
0.0311951
0.0309033
0.0306291
0.0303349
0.0300627
0.0297761
0.0294992
0.0292117
0.0289248
0.0286279
0.0283365
0.0280477
0.0277578
0.0274295
0.0271283
0.0268304
0.0265442
0.0263527
)
;

boundaryField
{
    inlet
    {
        type            fixedValue;
        value           uniform 0.2;
    }
    outlet
    {
        type            zeroGradient;
    }
    yzfaces
    {
        type            empty;
    }
}


// ************************************************************************* //
