/*--------------------------------*- C++ -*----------------------------------*\
| =========                 |                                                 |
| \\      /  F ield         | foam-extend: Open Source CFD                    |
|  \\    /   O peration     | Version:     5.0                                |
|   \\  /    A nd           | Web:         http://www.foam-extend.org         |
|    \\/     M anipulation  |                                                 |
\*---------------------------------------------------------------------------*/
FoamFile
{
    version     2.0;
    format      ascii;
    class       surfaceScalarField;
    location    "5";
    object      phi;
}
// * * * * * * * * * * * * * * * * * * * * * * * * * * * * * * * * * * * * * //

dimensions      [0 3 -1 0 0 0 0];

internalField   nonuniform List<scalar> 
99
(
1.22287e-06
1.22544e-06
1.23431e-06
1.23008e-06
1.22907e-06
1.23106e-06
1.22701e-06
1.22893e-06
1.22913e-06
1.23027e-06
1.23392e-06
1.23096e-06
1.22802e-06
1.22554e-06
1.22469e-06
1.22503e-06
1.23067e-06
1.22706e-06
1.22893e-06
1.22838e-06
1.23255e-06
1.22924e-06
1.22705e-06
1.22716e-06
1.2326e-06
1.23249e-06
1.23604e-06
1.23455e-06
1.23625e-06
1.23783e-06
1.23605e-06
1.23862e-06
1.23752e-06
1.23565e-06
1.23395e-06
1.23297e-06
1.23341e-06
1.2364e-06
1.23259e-06
1.23391e-06
1.2342e-06
1.23411e-06
1.23367e-06
1.2333e-06
1.23285e-06
1.23186e-06
1.23528e-06
1.23144e-06
1.23176e-06
1.22977e-06
1.23115e-06
1.23251e-06
1.23063e-06
1.23167e-06
1.23147e-06
1.23298e-06
1.23278e-06
1.23236e-06
1.22938e-06
1.23096e-06
1.23239e-06
1.23286e-06
1.23478e-06
1.23145e-06
1.23483e-06
1.23336e-06
1.23409e-06
1.23413e-06
1.23583e-06
1.23546e-06
1.23482e-06
1.23253e-06
1.23434e-06
1.23285e-06
1.23598e-06
1.23477e-06
1.23587e-06
1.2342e-06
1.23417e-06
1.23528e-06
1.23514e-06
1.23554e-06
1.23541e-06
1.2363e-06
1.23376e-06
1.23508e-06
1.23382e-06
1.23466e-06
1.23308e-06
1.23334e-06
1.2323e-06
1.23386e-06
1.23214e-06
1.23307e-06
1.22984e-06
1.23316e-06
1.23372e-06
1.23333e-06
1.23444e-06
)
;

boundaryField
{
    inlet
    {
        type            calculated;
        value           uniform -1.225e-06;
    }
    outlet
    {
        type            calculated;
        value           uniform 1.23243e-06;
    }
    yzfaces
    {
        type            empty;
    }
}


// ************************************************************************* //
