/*--------------------------------*- C++ -*----------------------------------*\
| =========                 |                                                 |
| \\      /  F ield         | foam-extend: Open Source CFD                    |
|  \\    /   O peration     | Version:     5.0                                |
|   \\  /    A nd           | Web:         http://www.foam-extend.org         |
|    \\/     M anipulation  |                                                 |
\*---------------------------------------------------------------------------*/
FoamFile
{
    version     2.0;
    format      ascii;
    class       volVectorField;
    location    "5";
    object      U.gas;
}
// * * * * * * * * * * * * * * * * * * * * * * * * * * * * * * * * * * * * * //

dimensions      [0 1 -1 0 0 0 0];

internalField   nonuniform List<vector> 
100
(
(0.0118475 0 0)
(0.0120584 0 0)
(0.0123166 0 0)
(0.0125231 0 0)
(0.0127137 0 0)
(0.0129143 0 0)
(0.0131004 0 0)
(0.0133005 0 0)
(0.0135003 0 0)
(0.0137158 0 0)
(0.0139389 0 0)
(0.0141242 0 0)
(0.0142942 0 0)
(0.0144561 0 0)
(0.0146151 0 0)
(0.0148029 0 0)
(0.0150214 0 0)
(0.0151968 0 0)
(0.0153602 0 0)
(0.0155378 0 0)
(0.0157375 0 0)
(0.0158909 0 0)
(0.0160253 0 0)
(0.0161813 0 0)
(0.0163641 0 0)
(0.0165406 0 0)
(0.0167346 0 0)
(0.0168928 0 0)
(0.0170301 0 0)
(0.017188 0 0)
(0.0173242 0 0)
(0.017469 0 0)
(0.0175914 0 0)
(0.0176965 0 0)
(0.0178073 0 0)
(0.0179159 0 0)
(0.0180341 0 0)
(0.0181729 0 0)
(0.0182808 0 0)
(0.018389 0 0)
(0.0185176 0 0)
(0.018638 0 0)
(0.0187426 0 0)
(0.0188375 0 0)
(0.0189334 0 0)
(0.0190215 0 0)
(0.0191384 0 0)
(0.0192344 0 0)
(0.0193092 0 0)
(0.0193852 0 0)
(0.0194813 0 0)
(0.0195955 0 0)
(0.0196642 0 0)
(0.0197456 0 0)
(0.0198273 0 0)
(0.0199247 0 0)
(0.0200044 0 0)
(0.0200801 0 0)
(0.0201243 0 0)
(0.020196 0 0)
(0.0202894 0 0)
(0.0203769 0 0)
(0.0204608 0 0)
(0.0204983 0 0)
(0.0205894 0 0)
(0.0206483 0 0)
(0.0207108 0 0)
(0.0207859 0 0)
(0.0208601 0 0)
(0.0209204 0 0)
(0.0209625 0 0)
(0.0209999 0 0)
(0.0210507 0 0)
(0.0211044 0 0)
(0.0211851 0 0)
(0.0212367 0 0)
(0.021286 0 0)
(0.0213199 0 0)
(0.0213571 0 0)
(0.0214092 0 0)
(0.0214599 0 0)
(0.0215127 0 0)
(0.0215545 0 0)
(0.0215998 0 0)
(0.0216169 0 0)
(0.0216493 0 0)
(0.0216736 0 0)
(0.0217064 0 0)
(0.0217278 0 0)
(0.0217506 0 0)
(0.0217724 0 0)
(0.0218075 0 0)
(0.0218264 0 0)
(0.0218391 0 0)
(0.0218463 0 0)
(0.0218825 0 0)
(0.0219134 0 0)
(0.021919 0 0)
(0.0218999 0 0)
(0.0217774 0 0)
)
;

boundaryField
{
    inlet
    {
        type            fixedValue;
        value           uniform (0.005 0 0);
    }
    outlet
    {
        type            zeroGradient;
    }
    yzfaces
    {
        type            empty;
    }
}


// ************************************************************************* //
