/*--------------------------------*- C++ -*----------------------------------*\
| =========                 |                                                 |
| \\      /  F ield         | foam-extend: Open Source CFD                    |
|  \\    /   O peration     | Version:     5.0                                |
|   \\  /    A nd           | Web:         http://www.foam-extend.org         |
|    \\/     M anipulation  |                                                 |
\*---------------------------------------------------------------------------*/
FoamFile
{
    version     2.0;
    format      ascii;
    class       volVectorField;
    location    "5";
    object      U.water;
}
// * * * * * * * * * * * * * * * * * * * * * * * * * * * * * * * * * * * * * //

dimensions      [0 1 -1 0 0 0 0];

internalField   nonuniform List<vector> 
100
(
(1.01831e-05 0 0)
(2.57608e-05 0 0)
(5.62937e-05 0 0)
(8.42424e-05 0 0)
(9.96239e-05 0 0)
(0.00012937 0 0)
(0.000150986 0 0)
(0.000173928 0 0)
(0.000202278 0 0)
(0.000222401 0 0)
(0.000252487 0 0)
(0.000280829 0 0)
(0.000300156 0 0)
(0.000326778 0 0)
(0.00035465 0 0)
(0.000376975 0 0)
(0.000407223 0 0)
(0.000436458 0 0)
(0.00046179 0 0)
(0.000484979 0 0)
(0.000511623 0 0)
(0.000540873 0 0)
(0.000560247 0 0)
(0.000583158 0 0)
(0.000615242 0 0)
(0.000641087 0 0)
(0.000662353 0 0)
(0.000690864 0 0)
(0.000717998 0 0)
(0.000744405 0 0)
(0.000766609 0 0)
(0.000791368 0 0)
(0.000819503 0 0)
(0.000839625 0 0)
(0.000858868 0 0)
(0.000881567 0 0)
(0.000905516 0 0)
(0.000932134 0 0)
(0.000953993 0 0)
(0.000974432 0 0)
(0.000998761 0 0)
(0.00102252 0 0)
(0.00104791 0 0)
(0.00107271 0 0)
(0.00109646 0 0)
(0.00111936 0 0)
(0.00114358 0 0)
(0.00116547 0 0)
(0.00118702 0 0)
(0.00121023 0 0)
(0.00123165 0 0)
(0.00125877 0 0)
(0.00128341 0 0)
(0.00130615 0 0)
(0.00132953 0 0)
(0.00135297 0 0)
(0.0013773 0 0)
(0.00139907 0 0)
(0.00141933 0 0)
(0.00144034 0 0)
(0.00146607 0 0)
(0.00148966 0 0)
(0.00151703 0 0)
(0.0015378 0 0)
(0.00155844 0 0)
(0.00158491 0 0)
(0.00160516 0 0)
(0.00162809 0 0)
(0.00165364 0 0)
(0.0016794 0 0)
(0.00170146 0 0)
(0.00172109 0 0)
(0.00174474 0 0)
(0.00176728 0 0)
(0.00179249 0 0)
(0.00181999 0 0)
(0.00184419 0 0)
(0.00186793 0 0)
(0.00188975 0 0)
(0.00191564 0 0)
(0.00194041 0 0)
(0.00196513 0 0)
(0.00199137 0 0)
(0.00201869 0 0)
(0.00204333 0 0)
(0.00206854 0 0)
(0.00209576 0 0)
(0.00212198 0 0)
(0.00214829 0 0)
(0.00217421 0 0)
(0.00220151 0 0)
(0.00223077 0 0)
(0.0022605 0 0)
(0.00228942 0 0)
(0.00231571 0 0)
(0.00234731 0 0)
(0.00238569 0 0)
(0.00241882 0 0)
(0.0024556 0 0)
(0.0024935 0 0)
)
;

boundaryField
{
    inlet
    {
        type            fixedValue;
        value           uniform (0 0 0);
    }
    outlet
    {
        type            zeroGradient;
    }
    yzfaces
    {
        type            empty;
    }
}


// ************************************************************************* //
