/*--------------------------------*- C++ -*----------------------------------*\
| =========                 |                                                 |
| \\      /  F ield         | foam-extend: Open Source CFD                    |
|  \\    /   O peration     | Version:     5.0                                |
|   \\  /    A nd           | Web:         http://www.foam-extend.org         |
|    \\/     M anipulation  |                                                 |
\*---------------------------------------------------------------------------*/
FoamFile
{
    version     2.0;
    format      ascii;
    class       surfaceScalarField;
    location    "2";
    object      phi;
}
// * * * * * * * * * * * * * * * * * * * * * * * * * * * * * * * * * * * * * //

dimensions      [0 3 -1 0 0 0 0];

internalField   nonuniform List<scalar> 
99
(
1.22617e-06
1.2185e-06
1.22118e-06
1.22408e-06
1.21975e-06
1.22337e-06
1.2195e-06
1.21493e-06
1.2235e-06
1.21678e-06
1.21836e-06
1.21987e-06
1.2187e-06
1.21879e-06
1.22038e-06
1.22226e-06
1.21519e-06
1.22357e-06
1.22049e-06
1.22195e-06
1.22052e-06
1.2207e-06
1.22205e-06
1.22017e-06
1.22287e-06
1.2206e-06
1.22275e-06
1.22328e-06
1.22255e-06
1.22097e-06
1.22038e-06
1.21942e-06
1.22033e-06
1.22097e-06
1.2195e-06
1.22049e-06
1.2187e-06
1.2187e-06
1.21881e-06
1.21467e-06
1.21981e-06
1.21854e-06
1.21826e-06
1.21979e-06
1.21829e-06
1.21864e-06
1.22065e-06
1.21858e-06
1.22141e-06
1.2188e-06
1.22197e-06
1.2186e-06
1.22198e-06
1.22177e-06
1.22017e-06
1.22026e-06
1.22096e-06
1.2212e-06
1.2212e-06
1.22166e-06
1.22166e-06
1.22143e-06
1.22143e-06
1.22143e-06
1.2219e-06
1.22166e-06
1.22166e-06
1.22096e-06
1.22143e-06
1.22143e-06
1.22143e-06
1.22166e-06
1.22166e-06
1.22166e-06
1.22166e-06
1.22213e-06
1.22236e-06
1.22236e-06
1.22236e-06
1.22236e-06
1.2219e-06
1.22259e-06
1.22259e-06
1.22283e-06
1.22283e-06
1.22283e-06
1.22283e-06
1.22283e-06
1.22259e-06
1.22283e-06
1.22283e-06
1.22306e-06
1.22283e-06
1.22283e-06
1.22283e-06
1.22329e-06
1.22306e-06
1.22259e-06
1.22283e-06
)
;

boundaryField
{
    inlet
    {
        type            calculated;
        value           uniform -1.225e-06;
    }
    outlet
    {
        type            calculated;
        value           uniform 1.22329e-06;
    }
    yzfaces
    {
        type            empty;
    }
}


// ************************************************************************* //
