/*--------------------------------*- C++ -*----------------------------------*\
| =========                 |                                                 |
| \\      /  F ield         | foam-extend: Open Source CFD                    |
|  \\    /   O peration     | Version:     5.0                                |
|   \\  /    A nd           | Web:         http://www.foam-extend.org         |
|    \\/     M anipulation  |                                                 |
\*---------------------------------------------------------------------------*/
FoamFile
{
    version     2.0;
    format      ascii;
    class       volVectorField;
    location    "2";
    object      U.water;
}
// * * * * * * * * * * * * * * * * * * * * * * * * * * * * * * * * * * * * * //

dimensions      [0 1 -1 0 0 0 0];

internalField   nonuniform List<vector> 
100
(
(2.97036e-05 0 0)
(7.20445e-05 0 0)
(0.000115921 0 0)
(0.000186717 0 0)
(0.000249555 0 0)
(0.000303914 0 0)
(0.000357524 0 0)
(0.000397256 0 0)
(0.000460698 0 0)
(0.00052654 0 0)
(0.00057724 0 0)
(0.000638423 0 0)
(0.000699489 0 0)
(0.000756996 0 0)
(0.000818038 0 0)
(0.000886576 0 0)
(0.000933377 0 0)
(0.000993617 0 0)
(0.00106347 0 0)
(0.001116 0 0)
(0.0011742 0 0)
(0.00122975 0 0)
(0.0012896 0 0)
(0.00134807 0 0)
(0.00140911 0 0)
(0.00146916 0 0)
(0.0015263 0 0)
(0.00158781 0 0)
(0.00164824 0 0)
(0.00170505 0 0)
(0.00176307 0 0)
(0.00182467 0 0)
(0.00188805 0 0)
(0.00195647 0 0)
(0.0020222 0 0)
(0.00208947 0 0)
(0.00216007 0 0)
(0.0022292 0 0)
(0.00230501 0 0)
(0.00237857 0 0)
(0.00246509 0 0)
(0.00256186 0 0)
(0.00265436 0 0)
(0.00276211 0 0)
(0.00287931 0 0)
(0.00300869 0 0)
(0.0031647 0 0)
(0.00334229 0 0)
(0.00355667 0 0)
(0.00381705 0 0)
(0.00413142 0 0)
(0.00448083 0 0)
(0.00478461 0 0)
(0.00494751 0 0)
(0.00498108 0 0)
(0.00498045 0 0)
(0.00498208 0 0)
(0.004984 0 0)
(0.00498448 0 0)
(0.00498543 0 0)
(0.00498638 0 0)
(0.0049859 0 0)
(0.00498543 0 0)
(0.00498543 0 0)
(0.00498638 0 0)
(0.00498685 0 0)
(0.00498638 0 0)
(0.00498495 0 0)
(0.00498448 0 0)
(0.00498543 0 0)
(0.00498543 0 0)
(0.0049859 0 0)
(0.00498638 0 0)
(0.00498638 0 0)
(0.00498638 0 0)
(0.00498733 0 0)
(0.00498875 0 0)
(0.00498923 0 0)
(0.00498923 0 0)
(0.00498923 0 0)
(0.00498828 0 0)
(0.00498875 0 0)
(0.00499018 0 0)
(0.00499065 0 0)
(0.00499113 0 0)
(0.00499113 0 0)
(0.00499113 0 0)
(0.00499113 0 0)
(0.00499065 0 0)
(0.00499065 0 0)
(0.00499113 0 0)
(0.0049916 0 0)
(0.0049916 0 0)
(0.00499113 0 0)
(0.00499113 0 0)
(0.00499208 0 0)
(0.00499255 0 0)
(0.00499113 0 0)
(0.00499065 0 0)
(0.00499208 0 0)
)
;

boundaryField
{
    inlet
    {
        type            fixedValue;
        value           uniform (0 0 0);
    }
    outlet
    {
        type            zeroGradient;
    }
    yzfaces
    {
        type            empty;
    }
}


// ************************************************************************* //
