/*--------------------------------*- C++ -*----------------------------------*\
| =========                 |                                                 |
| \\      /  F ield         | foam-extend: Open Source CFD                    |
|  \\    /   O peration     | Version:     5.0                                |
|   \\  /    A nd           | Web:         http://www.foam-extend.org         |
|    \\/     M anipulation  |                                                 |
\*---------------------------------------------------------------------------*/
FoamFile
{
    version     2.0;
    format      ascii;
    class       volScalarField;
    location    "9";
    object      alpha.gas;
}
// * * * * * * * * * * * * * * * * * * * * * * * * * * * * * * * * * * * * * //

dimensions      [0 0 0 0 0 0 0];

internalField   nonuniform List<scalar> 
100
(
8.88961e-05
0.000143755
0.000194891
0.00024447
0.000293065
0.000340838
0.000388081
0.000435161
0.000482219
0.00052926
0.000576119
0.000622823
0.000669627
0.000716435
0.000763434
0.000810473
0.00085758
0.000904792
0.000952682
0.00100063
0.00104891
0.00109805
0.0011472
0.00119735
0.00124824
0.00129986
0.00135341
0.001407
0.00146347
0.00152165
0.00158087
0.00164459
0.00171292
0.00178528
0.00186614
0.00195909
0.00206524
0.00219693
0.00236492
0.00260422
0.00296658
0.00362296
0.00513119
0.00959609
0.0235345
0.0489177
0.076942
0.1028
0.125008
0.143593
0.158247
0.169817
0.177843
0.182983
0.186421
0.188108
0.188984
0.189449
0.189807
0.189844
0.189918
0.189991
0.190051
0.189919
0.189988
0.189994
0.190012
0.190005
0.189969
0.189995
0.190069
0.189991
0.189998
0.190089
0.190142
0.190082
0.190106
0.190153
0.190171
0.19007
0.189988
0.189952
0.189992
0.190085
0.189972
0.189923
0.189917
0.189939
0.189959
0.189942
0.189849
0.189791
0.189857
0.189773
0.18984
0.189745
0.189724
0.189682
0.189507
0.189552
)
;

boundaryField
{
    inlet
    {
        type            fixedValue;
        value           uniform 0;
    }
    outlet
    {
        type            zeroGradient;
    }
    yzfaces
    {
        type            empty;
    }
}


// ************************************************************************* //
