/*--------------------------------*- C++ -*----------------------------------*\
| =========                 |                                                 |
| \\      /  F ield         | foam-extend: Open Source CFD                    |
|  \\    /   O peration     | Version:     5.0                                |
|   \\  /    A nd           | Web:         http://www.foam-extend.org         |
|    \\/     M anipulation  |                                                 |
\*---------------------------------------------------------------------------*/
FoamFile
{
    version     2.0;
    format      ascii;
    class       volScalarField;
    location    "9";
    object      alpha.water;
}
// * * * * * * * * * * * * * * * * * * * * * * * * * * * * * * * * * * * * * //

dimensions      [0 0 0 0 0 0 0];

internalField   nonuniform List<scalar> 
100
(
0.199911
0.199856
0.199805
0.199756
0.199707
0.199659
0.199612
0.199565
0.199518
0.199471
0.199424
0.199377
0.19933
0.199284
0.199237
0.19919
0.199142
0.199095
0.199047
0.198999
0.198951
0.198902
0.198853
0.198803
0.198752
0.1987
0.198647
0.198593
0.198537
0.198478
0.198419
0.198355
0.198287
0.198215
0.198134
0.198041
0.197935
0.197803
0.197635
0.197396
0.197033
0.196377
0.194869
0.190404
0.176465
0.151082
0.123058
0.0971998
0.0749925
0.0564066
0.041753
0.0301831
0.022157
0.017017
0.0135786
0.0118918
0.0110163
0.0105508
0.0101929
0.0101556
0.0100823
0.0100089
0.0099486
0.0100806
0.0100124
0.0100065
0.00998823
0.00999533
0.0100308
0.0100045
0.00993066
0.0100087
0.0100015
0.00991073
0.00985817
0.00991827
0.00989386
0.00984684
0.00982871
0.0099297
0.0100124
0.0100477
0.010008
0.00991465
0.0100281
0.0100766
0.0100834
0.0100611
0.010041
0.010058
0.0101513
0.0102089
0.0101432
0.0102266
0.01016
0.0102545
0.0102756
0.0103179
0.0104927
0.010448
)
;

boundaryField
{
    inlet
    {
        type            fixedValue;
        value           uniform 0.2;
    }
    outlet
    {
        type            zeroGradient;
    }
    yzfaces
    {
        type            empty;
    }
}


// ************************************************************************* //
