/*--------------------------------*- C++ -*----------------------------------*\
| =========                 |                                                 |
| \\      /  F ield         | foam-extend: Open Source CFD                    |
|  \\    /   O peration     | Version:     5.0                                |
|   \\  /    A nd           | Web:         http://www.foam-extend.org         |
|    \\/     M anipulation  |                                                 |
\*---------------------------------------------------------------------------*/
FoamFile
{
    version     2.0;
    format      ascii;
    class       volScalarField;
    location    "6";
    object      alpha.gas;
}
// * * * * * * * * * * * * * * * * * * * * * * * * * * * * * * * * * * * * * //

dimensions      [0 0 0 0 0 0 0];

internalField   nonuniform List<scalar> 
100
(
0.0865107
0.0850662
0.0835782
0.0822259
0.0807558
0.0794828
0.0781443
0.0769181
0.0756984
0.074432
0.0732436
0.0720318
0.0709218
0.0697847
0.0687505
0.0677148
0.0667658
0.0657193
0.0647603
0.0638605
0.062965
0.062119
0.0613477
0.060463
0.0597321
0.0589645
0.0582199
0.057542
0.056873
0.0561904
0.0555295
0.0548763
0.0542006
0.0536256
0.0530693
0.0524299
0.051887
0.0513619
0.0507712
0.0501987
0.0497047
0.0492114
0.0487417
0.0482767
0.0478378
0.0474112
0.0469817
0.046587
0.0461516
0.0457564
0.0453098
0.0448951
0.0445716
0.0441685
0.0437863
0.0433944
0.0430424
0.0426884
0.0423496
0.0419786
0.0416484
0.0413373
0.0409879
0.0406755
0.0403695
0.0400545
0.0397157
0.0393846
0.0391402
0.0388063
0.0384882
0.0382371
0.0379714
0.0376691
0.0374089
0.037142
0.036879
0.0366172
0.0363386
0.0360923
0.0358283
0.0355837
0.0353232
0.0350601
0.0348278
0.0345833
0.0343438
0.0340982
0.0338584
0.0336205
0.0333866
0.033155
0.0329196
0.0326965
0.0324571
0.032223
0.0320068
0.0317954
0.031622
0.0315193
)
;

boundaryField
{
    inlet
    {
        type            fixedValue;
        value           uniform 0.2;
    }
    outlet
    {
        type            zeroGradient;
    }
    yzfaces
    {
        type            empty;
    }
}


// ************************************************************************* //
