/*--------------------------------*- C++ -*----------------------------------*\
| =========                 |                                                 |
| \\      /  F ield         | foam-extend: Open Source CFD                    |
|  \\    /   O peration     | Version:     5.0                                |
|   \\  /    A nd           | Web:         http://www.foam-extend.org         |
|    \\/     M anipulation  |                                                 |
\*---------------------------------------------------------------------------*/
FoamFile
{
    version     2.0;
    format      ascii;
    class       volVectorField;
    location    "6";
    object      U.gas;
}
// * * * * * * * * * * * * * * * * * * * * * * * * * * * * * * * * * * * * * //

dimensions      [0 1 -1 0 0 0 0];

internalField   nonuniform List<vector> 
100
(
(0.0115443 0 0)
(0.0117168 0 0)
(0.0119227 0 0)
(0.0120956 0 0)
(0.0122658 0 0)
(0.0124097 0 0)
(0.0125861 0 0)
(0.012746 0 0)
(0.0129386 0 0)
(0.0131604 0 0)
(0.0133539 0 0)
(0.0135327 0 0)
(0.0136772 0 0)
(0.0138877 0 0)
(0.0140754 0 0)
(0.0142334 0 0)
(0.0143548 0 0)
(0.014526 0 0)
(0.0147102 0 0)
(0.0148623 0 0)
(0.0150215 0 0)
(0.0151882 0 0)
(0.015331 0 0)
(0.0155027 0 0)
(0.0156372 0 0)
(0.0157752 0 0)
(0.0159152 0 0)
(0.0160312 0 0)
(0.016172 0 0)
(0.0163311 0 0)
(0.0164617 0 0)
(0.0165819 0 0)
(0.0167224 0 0)
(0.0168559 0 0)
(0.0169656 0 0)
(0.0170935 0 0)
(0.0171973 0 0)
(0.0172859 0 0)
(0.0174317 0 0)
(0.0175836 0 0)
(0.0176986 0 0)
(0.0178324 0 0)
(0.0179349 0 0)
(0.0180316 0 0)
(0.0181509 0 0)
(0.0182709 0 0)
(0.0183903 0 0)
(0.01847 0 0)
(0.0185661 0 0)
(0.0186569 0 0)
(0.0187502 0 0)
(0.018846 0 0)
(0.0188921 0 0)
(0.0189679 0 0)
(0.0190496 0 0)
(0.0191374 0 0)
(0.0192231 0 0)
(0.0193078 0 0)
(0.0193723 0 0)
(0.0194616 0 0)
(0.0195348 0 0)
(0.0195953 0 0)
(0.0196734 0 0)
(0.0197267 0 0)
(0.0197792 0 0)
(0.0198427 0 0)
(0.019927 0 0)
(0.0200245 0 0)
(0.0200535 0 0)
(0.0201266 0 0)
(0.0202097 0 0)
(0.020252 0 0)
(0.0202997 0 0)
(0.0203602 0 0)
(0.0203976 0 0)
(0.0204493 0 0)
(0.0204905 0 0)
(0.0205352 0 0)
(0.0206006 0 0)
(0.0206325 0 0)
(0.0206792 0 0)
(0.0207147 0 0)
(0.020765 0 0)
(0.0208241 0 0)
(0.0208632 0 0)
(0.0209097 0 0)
(0.0209558 0 0)
(0.0210126 0 0)
(0.0210657 0 0)
(0.0210968 0 0)
(0.0211212 0 0)
(0.0211518 0 0)
(0.0211894 0 0)
(0.0212155 0 0)
(0.0212598 0 0)
(0.0212957 0 0)
(0.0212962 0 0)
(0.0213092 0 0)
(0.0213119 0 0)
(0.0212596 0 0)
)
;

boundaryField
{
    inlet
    {
        type            fixedValue;
        value           uniform (0.005 0 0);
    }
    outlet
    {
        type            zeroGradient;
    }
    yzfaces
    {
        type            empty;
    }
}


// ************************************************************************* //
