/*--------------------------------*- C++ -*----------------------------------*\
| =========                 |                                                 |
| \\      /  F ield         | foam-extend: Open Source CFD                    |
|  \\    /   O peration     | Version:     5.0                                |
|   \\  /    A nd           | Web:         http://www.foam-extend.org         |
|    \\/     M anipulation  |                                                 |
\*---------------------------------------------------------------------------*/
FoamFile
{
    version     2.0;
    format      ascii;
    class       volVectorField;
    location    "6";
    object      U.water;
}
// * * * * * * * * * * * * * * * * * * * * * * * * * * * * * * * * * * * * * //

dimensions      [0 1 -1 0 0 0 0];

internalField   nonuniform List<vector> 
100
(
(1.29192e-05 0 0)
(2.90078e-05 0 0)
(5.09011e-05 0 0)
(6.67455e-05 0 0)
(8.76994e-05 0 0)
(0.000112158 0 0)
(0.000130306 0 0)
(0.000154979 0 0)
(0.000167695 0 0)
(0.000186983 0 0)
(0.000208058 0 0)
(0.000230941 0 0)
(0.000253142 0 0)
(0.000276732 0 0)
(0.000302216 0 0)
(0.000325641 0 0)
(0.000341322 0 0)
(0.000357884 0 0)
(0.000387866 0 0)
(0.000410246 0 0)
(0.000432314 0 0)
(0.000460348 0 0)
(0.000475029 0 0)
(0.000495858 0 0)
(0.0005233 0 0)
(0.000539606 0 0)
(0.000564087 0 0)
(0.000587398 0 0)
(0.000604881 0 0)
(0.00062445 0 0)
(0.000645477 0 0)
(0.000662539 0 0)
(0.00068701 0 0)
(0.000714772 0 0)
(0.000727491 0 0)
(0.000746521 0 0)
(0.000773755 0 0)
(0.0007879 0 0)
(0.000804055 0 0)
(0.000832393 0 0)
(0.000858413 0 0)
(0.000879891 0 0)
(0.000900599 0 0)
(0.000920327 0 0)
(0.000941512 0 0)
(0.00096077 0 0)
(0.000981917 0 0)
(0.000999403 0 0)
(0.00101708 0 0)
(0.00103513 0 0)
(0.00105215 0 0)
(0.00108069 0 0)
(0.00109885 0 0)
(0.00111013 0 0)
(0.00112898 0 0)
(0.00114957 0 0)
(0.00117065 0 0)
(0.00118971 0 0)
(0.00120633 0 0)
(0.00122601 0 0)
(0.00124897 0 0)
(0.0012645 0 0)
(0.00128191 0 0)
(0.00130326 0 0)
(0.00132088 0 0)
(0.00133609 0 0)
(0.00135418 0 0)
(0.00138161 0 0)
(0.00139917 0 0)
(0.0014115 0 0)
(0.00143763 0 0)
(0.00146008 0 0)
(0.00147356 0 0)
(0.00149089 0 0)
(0.00151035 0 0)
(0.00152745 0 0)
(0.00154534 0 0)
(0.00156237 0 0)
(0.00158229 0 0)
(0.00160038 0 0)
(0.00161785 0 0)
(0.00163617 0 0)
(0.00165306 0 0)
(0.00167432 0 0)
(0.00169395 0 0)
(0.00171131 0 0)
(0.00173125 0 0)
(0.00175121 0 0)
(0.00177084 0 0)
(0.00178957 0 0)
(0.00180769 0 0)
(0.00182607 0 0)
(0.00184535 0 0)
(0.00186384 0 0)
(0.00188258 0 0)
(0.00190396 0 0)
(0.00192251 0 0)
(0.0019417 0 0)
(0.00196436 0 0)
(0.00198576 0 0)
)
;

boundaryField
{
    inlet
    {
        type            fixedValue;
        value           uniform (0 0 0);
    }
    outlet
    {
        type            zeroGradient;
    }
    yzfaces
    {
        type            empty;
    }
}


// ************************************************************************* //
