/*--------------------------------*- C++ -*----------------------------------*\
| =========                 |                                                 |
| \\      /  F ield         | foam-extend: Open Source CFD                    |
|  \\    /   O peration     | Version:     5.0                                |
|   \\  /    A nd           | Web:         http://www.foam-extend.org         |
|    \\/     M anipulation  |                                                 |
\*---------------------------------------------------------------------------*/
FoamFile
{
    version     2.0;
    format      ascii;
    class       volScalarField;
    location    "10";
    object      CO2.gas;
}
// * * * * * * * * * * * * * * * * * * * * * * * * * * * * * * * * * * * * * //

dimensions      [0 0 0 0 0 0 0];

internalField   nonuniform List<scalar> 
100
(
0.147126
0.131443
0.12145
0.114006
0.107745
0.103021
0.0986562
0.0954649
0.092506
0.0899839
0.0877262
0.0855255
0.0836765
0.0820749
0.0804806
0.0788345
0.0772818
0.0763443
0.074998
0.0741113
0.0730815
0.0723019
0.0711125
0.0701458
0.0691623
0.0680532
0.0672691
0.0663759
0.0656387
0.0649198
0.064166
0.063346
0.0624894
0.0618142
0.0612691
0.0606874
0.0601638
0.0596094
0.0590691
0.0586721
0.0583274
0.0578113
0.0574135
0.0569584
0.0564792
0.0560477
0.0556172
0.0550962
0.0544865
0.0540176
0.0535472
0.053233
0.0528646
0.0524843
0.0521563
0.0519393
0.0516845
0.0513973
0.0510123
0.0507121
0.0503532
0.0499913
0.0496778
0.0494259
0.0491921
0.048944
0.0487116
0.0484003
0.0480513
0.0477488
0.0474474
0.0472395
0.0470222
0.0467169
0.0464846
0.046325
0.0460539
0.0456831
0.0454101
0.0451776
0.0450073
0.0448249
0.044663
0.0444158
0.044155
0.0439466
0.043786
0.0435661
0.0433726
0.0431873
0.0429379
0.0427357
0.042535
0.0422992
0.0420708
0.0418635
0.0417274
0.0415317
0.0412942
0.0410549
)
;

boundaryField
{
    inlet
    {
        type            fixedValue;
        value           uniform 0.2;
    }
    outlet
    {
        type            zeroGradient;
    }
    yzfaces
    {
        type            empty;
    }
}


// ************************************************************************* //
