/*--------------------------------*- C++ -*----------------------------------*\
| =========                 |                                                 |
| \\      /  F ield         | foam-extend: Open Source CFD                    |
|  \\    /   O peration     | Version:     5.0                                |
|   \\  /    A nd           | Web:         http://www.foam-extend.org         |
|    \\/     M anipulation  |                                                 |
\*---------------------------------------------------------------------------*/
FoamFile
{
    version     2.0;
    format      ascii;
    class       surfaceScalarField;
    location    "10";
    object      phi;
}
// * * * * * * * * * * * * * * * * * * * * * * * * * * * * * * * * * * * * * //

dimensions      [0 3 -1 0 0 0 0];

internalField   nonuniform List<scalar> 
99
(
1.22864e-06
1.23233e-06
1.23549e-06
1.23805e-06
1.23057e-06
1.21875e-06
1.22075e-06
1.2159e-06
1.22008e-06
1.21528e-06
1.2211e-06
1.21662e-06
1.21335e-06
1.21584e-06
1.20885e-06
1.20873e-06
1.2113e-06
1.20833e-06
1.20742e-06
1.21237e-06
1.21215e-06
1.21395e-06
1.2143e-06
1.21155e-06
1.21423e-06
1.21008e-06
1.21013e-06
1.2127e-06
1.21195e-06
1.21374e-06
1.21433e-06
1.21275e-06
1.21262e-06
1.21288e-06
1.2135e-06
1.21505e-06
1.21635e-06
1.21538e-06
1.21611e-06
1.21832e-06
1.21859e-06
1.21799e-06
1.22032e-06
1.2212e-06
1.22105e-06
1.22081e-06
1.21881e-06
1.21394e-06
1.21591e-06
1.21707e-06
1.2178e-06
1.21841e-06
1.21937e-06
1.22032e-06
1.22068e-06
1.21904e-06
1.22179e-06
1.21875e-06
1.21641e-06
1.21894e-06
1.21819e-06
1.2194e-06
1.21994e-06
1.22257e-06
1.22301e-06
1.22119e-06
1.22234e-06
1.22042e-06
1.22251e-06
1.22495e-06
1.22664e-06
1.22595e-06
1.22447e-06
1.2247e-06
1.22474e-06
1.22341e-06
1.22315e-06
1.22478e-06
1.22589e-06
1.22817e-06
1.22922e-06
1.22916e-06
1.22745e-06
1.22847e-06
1.23087e-06
1.22989e-06
1.23062e-06
1.23127e-06
1.23093e-06
1.22982e-06
1.22976e-06
1.22726e-06
1.22699e-06
1.22717e-06
1.22782e-06
1.22837e-06
1.22855e-06
1.2274e-06
1.22661e-06
)
;

boundaryField
{
    inlet
    {
        type            calculated;
        value           uniform -1.225e-06;
    }
    outlet
    {
        type            calculated;
        value           uniform 1.22612e-06;
    }
    yzfaces
    {
        type            empty;
    }
}


// ************************************************************************* //
