/*--------------------------------*- C++ -*----------------------------------*\
| =========                 |                                                 |
| \\      /  F ield         | foam-extend: Open Source CFD                    |
|  \\    /   O peration     | Version:     5.0                                |
|   \\  /    A nd           | Web:         http://www.foam-extend.org         |
|    \\/     M anipulation  |                                                 |
\*---------------------------------------------------------------------------*/
FoamFile
{
    version     2.0;
    format      ascii;
    class       volVectorField;
    location    "10";
    object      U.gas;
}
// * * * * * * * * * * * * * * * * * * * * * * * * * * * * * * * * * * * * * //

dimensions      [0 1 -1 0 0 0 0];

internalField   nonuniform List<vector> 
100
(
(0.00680272 0 0)
(0.00762175 0 0)
(0.00825812 0 0)
(0.00879119 0 0)
(0.00923278 0 0)
(0.00955423 0 0)
(0.00988865 0 0)
(0.0101959 0 0)
(0.0104939 0 0)
(0.0107627 0 0)
(0.0110247 0 0)
(0.0112829 0 0)
(0.0114678 0 0)
(0.0116693 0 0)
(0.0118516 0 0)
(0.0120235 0 0)
(0.012236 0 0)
(0.0123858 0 0)
(0.0125499 0 0)
(0.0127087 0 0)
(0.0128901 0 0)
(0.0130218 0 0)
(0.0131997 0 0)
(0.0133335 0 0)
(0.0134906 0 0)
(0.0136562 0 0)
(0.0137584 0 0)
(0.0139143 0 0)
(0.0140489 0 0)
(0.0141799 0 0)
(0.0143246 0 0)
(0.0144588 0 0)
(0.0146029 0 0)
(0.0147221 0 0)
(0.0148287 0 0)
(0.0149458 0 0)
(0.0150642 0 0)
(0.0151749 0 0)
(0.0152769 0 0)
(0.0153765 0 0)
(0.0154561 0 0)
(0.0155539 0 0)
(0.0156518 0 0)
(0.0157641 0 0)
(0.015861 0 0)
(0.0159433 0 0)
(0.0160138 0 0)
(0.0160674 0 0)
(0.0161736 0 0)
(0.0162955 0 0)
(0.0164051 0 0)
(0.0164871 0 0)
(0.0165737 0 0)
(0.0166707 0 0)
(0.016744 0 0)
(0.0167849 0 0)
(0.0168444 0 0)
(0.0169044 0 0)
(0.0169564 0 0)
(0.0170194 0 0)
(0.017109 0 0)
(0.0171903 0 0)
(0.0172748 0 0)
(0.0173522 0 0)
(0.0174266 0 0)
(0.0174776 0 0)
(0.0175206 0 0)
(0.0175901 0 0)
(0.0176657 0 0)
(0.0177629 0 0)
(0.0178623 0 0)
(0.0179168 0 0)
(0.0179436 0 0)
(0.0180064 0 0)
(0.0180621 0 0)
(0.018081 0 0)
(0.0181366 0 0)
(0.0182343 0 0)
(0.0183232 0 0)
(0.0183924 0 0)
(0.0184566 0 0)
(0.0185073 0 0)
(0.0185321 0 0)
(0.0185865 0 0)
(0.018668 0 0)
(0.0187295 0 0)
(0.0187616 0 0)
(0.0188224 0 0)
(0.0188681 0 0)
(0.0188943 0 0)
(0.0189425 0 0)
(0.018968 0 0)
(0.0189899 0 0)
(0.0190482 0 0)
(0.0191082 0 0)
(0.0191643 0 0)
(0.0191996 0 0)
(0.01924 0 0)
(0.0192769 0 0)
(0.0193135 0 0)
)
;

boundaryField
{
    inlet
    {
        type            fixedValue;
        value           uniform (0.005 0 0);
    }
    outlet
    {
        type            zeroGradient;
    }
    yzfaces
    {
        type            empty;
    }
}


// ************************************************************************* //
