/*--------------------------------*- C++ -*----------------------------------*\
| =========                 |                                                 |
| \\      /  F ield         | foam-extend: Open Source CFD                    |
|  \\    /   O peration     | Version:     5.0                                |
|   \\  /    A nd           | Web:         http://www.foam-extend.org         |
|    \\/     M anipulation  |                                                 |
\*---------------------------------------------------------------------------*/
FoamFile
{
    version     2.0;
    format      ascii;
    class       volScalarField;
    location    "3";
    object      alpha.gas;
}
// * * * * * * * * * * * * * * * * * * * * * * * * * * * * * * * * * * * * * //

dimensions      [0 0 0 0 0 0 0];

internalField   nonuniform List<scalar> 
100
(
0.0779022
0.0759396
0.074018
0.0721314
0.0704417
0.0686765
0.0669669
0.0653519
0.0638537
0.0623871
0.0609574
0.0595303
0.0582802
0.0570366
0.0557829
0.0546062
0.053593
0.0525382
0.051494
0.0505624
0.0496257
0.0487909
0.0479087
0.0470743
0.0463
0.0455139
0.0447468
0.0440308
0.0433137
0.0426581
0.0420004
0.0413265
0.0407342
0.0401076
0.0395428
0.0389664
0.0384275
0.0378732
0.0373118
0.0368166
0.036296
0.0357952
0.035361
0.0348458
0.0344024
0.0339315
0.033498
0.0330865
0.0326458
0.0322422
0.0318249
0.0314248
0.0310354
0.0306113
0.0302079
0.0298094
0.0294352
0.0290762
0.0286833
0.0283101
0.0279086
0.0275467
0.0271965
0.0268151
0.0264648
0.0260872
0.0257319
0.0253776
0.0250121
0.0246427
0.0242978
0.0239429
0.0235858
0.0232261
0.022859
0.0224877
0.0221253
0.0217572
0.0213901
0.0210156
0.0206479
0.0202622
0.01988
0.0194829
0.0190947
0.0186962
0.0183032
0.0178982
0.0174915
0.0170741
0.0166669
0.0162509
0.015838
0.0154125
0.0150011
0.0145886
0.0141855
0.0137929
0.0134173
0.0130965
)
;

boundaryField
{
    inlet
    {
        type            fixedValue;
        value           uniform 0.2;
    }
    outlet
    {
        type            zeroGradient;
    }
    yzfaces
    {
        type            empty;
    }
}


// ************************************************************************* //
