/*--------------------------------*- C++ -*----------------------------------*\
| =========                 |                                                 |
| \\      /  F ield         | foam-extend: Open Source CFD                    |
|  \\    /   O peration     | Version:     5.0                                |
|   \\  /    A nd           | Web:         http://www.foam-extend.org         |
|    \\/     M anipulation  |                                                 |
\*---------------------------------------------------------------------------*/
FoamFile
{
    version     2.0;
    format      ascii;
    class       volScalarField;
    location    "3";
    object      YH2O;
}
// * * * * * * * * * * * * * * * * * * * * * * * * * * * * * * * * * * * * * //

dimensions      [0 0 0 0 0 0 0];

internalField   nonuniform List<scalar> 
100
(
-0.0009737
0.00234217
-0.000390835
-0.000387442
-0.00233411
-0.00555919
0.00154309
-0.00213731
0.000969797
0.000486544
0.00214946
-7.61682e-06
-0.000636139
-0.000719692
0.00127059
-0.00081105
0.00267251
-0.00341281
0.00138955
-0.00218052
0.00114524
-0.00474046
-0.000535347
-0.000284512
0.000747907
0.000175675
0.00224334
-0.000158103
0.00127651
-0.00103393
0.00221136
-0.00114306
0.00139797
-3.16159e-05
-5.0633e-05
0.00120585
0.000832076
2.13464e-05
0.000612749
-0.000420365
-0.000164934
-0.00165191
-0.00147062
-0.000984518
-0.0013299
0.000421261
-0.000848999
-0.000504599
-0.000970049
-0.00220199
-0.00332984
-0.00516461
-0.00711161
-0.0121557
-0.0161436
-0.0239909
-0.032209
-0.0427875
-0.0553574
-0.0708325
-0.0848661
-0.102553
-0.117096
-0.13508
-0.148661
-0.161953
-0.171355
-0.17933
-0.182556
-0.182411
-0.179389
-0.172749
-0.162617
-0.150778
-0.13633
-0.121756
-0.10515
-0.0897323
-0.0741167
-0.0614172
-0.0472004
-0.0375745
-0.0277404
-0.0214941
-0.0154558
-0.0102225
-0.00767393
-0.0045091
-0.00334737
-0.00112539
-0.00114054
-0.000171183
0.000265016
0.000273494
0.000578345
3.59293e-05
-0.000603592
0.000432404
0.000174616
0.000371728
)
;

boundaryField
{
    inlet
    {
        type            calculated;
        value           uniform 0;
    }
    outlet
    {
        type            calculated;
        value           uniform 0.000371728;
    }
    yzfaces
    {
        type            empty;
    }
}


// ************************************************************************* //
