/*--------------------------------*- C++ -*----------------------------------*\
| =========                 |                                                 |
| \\      /  F ield         | foam-extend: Open Source CFD                    |
|  \\    /   O peration     | Version:     5.0                                |
|   \\  /    A nd           | Web:         http://www.foam-extend.org         |
|    \\/     M anipulation  |                                                 |
\*---------------------------------------------------------------------------*/
FoamFile
{
    version     2.0;
    format      ascii;
    class       volScalarField;
    location    "9";
    object      XCO2;
}
// * * * * * * * * * * * * * * * * * * * * * * * * * * * * * * * * * * * * * //

dimensions      [0 0 0 0 0 0 0];

internalField   nonuniform List<scalar> 
100
(
1.89617e+17
-6.14459e+17
1.5389e+18
-3.90128e+18
9.65422e+18
-2.33897e+19
5.54469e+19
-1.28672e+20
2.92178e+20
-6.49105e+20
1.41057e+21
-2.99947e+21
6.23697e+21
-1.26816e+22
2.52072e+22
-4.89924e+22
9.31492e+22
-1.73393e+23
3.16521e+23
-5.70473e+23
1.02714e+24
-1.89311e+24
3.69001e+24
-7.84489e+24
1.83159e+25
-4.57456e+25
1.17838e+26
-3.02056e+26
7.52763e+26
-1.79734e+27
4.05564e+27
-8.51346e+27
1.61646e+28
-2.60121e+28
2.77239e+28
2.01648e+28
-2.48638e+29
1.01778e+30
-3.22195e+30
8.85814e+30
-2.19137e+31
4.88103e+31
-9.52245e+31
1.43705e+32
-9.81342e+31
-2.31516e+32
5.61245e+32
1.75915e+33
-6.31315e+33
-8.30773e+34
8.83134e+35
-2.26364e+36
-3.252e+37
-1.13583e+38
-2.09339e+38
-2.42825e+38
-4.91745e+37
-6.76087e+35
-7.75551e+32
-7.72665e+28
-6.6173e+23
-4.98098e+17
-3.1867e+10
-178.591
1
1
1
1
1
1
1
1
1
1
1
1
1
1
1
1
1
1
1
1
1
1
1
1
1
1
1
1
1
1
1
1
1
1
1
1
)
;

boundaryField
{
    inlet
    {
        type            calculated;
        value           uniform 0.5;
    }
    outlet
    {
        type            calculated;
        value           uniform 1;
    }
    yzfaces
    {
        type            empty;
    }
}


// ************************************************************************* //
