/*--------------------------------*- C++ -*----------------------------------*\
| =========                 |                                                 |
| \\      /  F ield         | foam-extend: Open Source CFD                    |
|  \\    /   O peration     | Version:     5.0                                |
|   \\  /    A nd           | Web:         http://www.foam-extend.org         |
|    \\/     M anipulation  |                                                 |
\*---------------------------------------------------------------------------*/
FoamFile
{
    version     2.0;
    format      ascii;
    class       surfaceScalarField;
    location    "2";
    object      phi;
}
// * * * * * * * * * * * * * * * * * * * * * * * * * * * * * * * * * * * * * //

dimensions      [0 3 -1 0 0 0 0];

internalField   nonuniform List<scalar> 
99
(
1.22423e-06
1.22538e-06
1.22387e-06
1.22476e-06
1.22438e-06
1.22351e-06
1.22358e-06
1.22974e-06
1.21845e-06
1.21651e-06
1.21756e-06
1.21246e-06
1.23342e-06
1.21567e-06
1.21521e-06
1.19605e-06
1.21113e-06
1.19247e-06
1.19213e-06
1.207e-06
1.19209e-06
1.17719e-06
1.20699e-06
1.19209e-06
1.2219e-06
1.2666e-06
1.2219e-06
1.2517e-06
1.2517e-06
1.2517e-06
1.2368e-06
1.2666e-06
1.20699e-06
1.19209e-06
1.17719e-06
1.16229e-06
1.17719e-06
1.16229e-06
1.14739e-06
1.14739e-06
1.19209e-06
1.14739e-06
1.14739e-06
1.11759e-06
1.10269e-06
1.10269e-06
1.07288e-06
1.10269e-06
1.11759e-06
1.11759e-06
1.11759e-06
1.10269e-06
1.08778e-06
1.10269e-06
1.08778e-06
1.10269e-06
1.13249e-06
1.10269e-06
1.11759e-06
1.07288e-06
1.04308e-06
1.05798e-06
1.05798e-06
1.04308e-06
1.02818e-06
1.08778e-06
1.08778e-06
1.08778e-06
1.07288e-06
1.07288e-06
1.05798e-06
1.07288e-06
1.07288e-06
1.08778e-06
1.10269e-06
1.10269e-06
1.08778e-06
1.08778e-06
1.10269e-06
1.10269e-06
1.13249e-06
1.13249e-06
1.10269e-06
1.13249e-06
1.13249e-06
1.11759e-06
1.11759e-06
1.16229e-06
1.16229e-06
1.16229e-06
1.13249e-06
1.13249e-06
1.13249e-06
1.10269e-06
1.10269e-06
1.08778e-06
1.07288e-06
1.05798e-06
1.07288e-06
)
;

boundaryField
{
    inlet
    {
        type            calculated;
        value           uniform -1.225e-06;
    }
    outlet
    {
        type            calculated;
        value           uniform 1.10269e-06;
    }
    yzfaces
    {
        type            empty;
    }
}


// ************************************************************************* //
