/*--------------------------------*- C++ -*----------------------------------*\
| =========                 |                                                 |
| \\      /  F ield         | foam-extend: Open Source CFD                    |
|  \\    /   O peration     | Version:     5.0                                |
|   \\  /    A nd           | Web:         http://www.foam-extend.org         |
|    \\/     M anipulation  |                                                 |
\*---------------------------------------------------------------------------*/
FoamFile
{
    version     2.0;
    format      ascii;
    class       volScalarField;
    location    "2";
    object      XH2O;
}
// * * * * * * * * * * * * * * * * * * * * * * * * * * * * * * * * * * * * * //

dimensions      [0 0 0 0 0 0 0];

internalField   nonuniform List<scalar> 
100
(
3.37895
-9.86355
32.3926
-93.4167
249.081
-579.201
1141.96
-1677.76
916.204
3888.44
-17496.3
81249.2
-565004
3.22284e+06
-8.88099e+06
-3.71985e+07
4.69657e+08
3.6966e+09
9.38931e+09
1.50333e+10
1.18708e+10
6.34635e+08
2.55162e+06
817.182
0.0213694
4.54822e-08
7.87285e-15
1.08228e-22
1.20288e-31
1.07715e-41
7.76809e-53
4.38345e-65
2.02021e-78
7.26927e-93
2.08274e-108
4.69545e-125
8.35958e-143
1.17312e-161
1.29973e-181
1.12643e-202
7.51287e-225
4.00311e-248
1.65036e-272
5.28018e-298
0
0
0
0
0
0
0
0
0
0
0
0
0
0
0
0
0
0
0
0
0
0
0
0
0
0
0
0
0
0
0
0
0
0
0
0
0
0
0
0
0
0
0
0
0
0
0
0
0
0
0
0
0
0
0
0
)
;

boundaryField
{
    inlet
    {
        type            fixedValue;
        value           uniform 0.5;
    }
    outlet
    {
        type            zeroGradient;
    }
    yzfaces
    {
        type            empty;
    }
}


// ************************************************************************* //
