/*--------------------------------*- C++ -*----------------------------------*\
| =========                 |                                                 |
| \\      /  F ield         | foam-extend: Open Source CFD                    |
|  \\    /   O peration     | Version:     5.0                                |
|   \\  /    A nd           | Web:         http://www.foam-extend.org         |
|    \\/     M anipulation  |                                                 |
\*---------------------------------------------------------------------------*/
FoamFile
{
    version     2.0;
    format      ascii;
    class       volScalarField;
    location    "5";
    object      alpha.water;
}
// * * * * * * * * * * * * * * * * * * * * * * * * * * * * * * * * * * * * * //

dimensions      [0 0 0 0 0 0 0];

internalField   nonuniform List<scalar> 
100
(
0.199823
0.199713
0.199611
0.199511
0.199412
0.199314
0.199215
0.199115
0.199015
0.198911
0.198806
0.198696
0.198581
0.198458
0.198325
0.198175
0.198
0.197781
0.197487
0.197044
0.196248
0.194447
0.189104
0.173468
0.146799
0.118955
0.0935439
0.0713453
0.0535769
0.0393869
0.0283229
0.0206881
0.0158165
0.013034
0.0113855
0.0107467
0.0102919
0.0101397
0.0100222
0.00997882
0.0100249
0.00992812
0.00997458
0.0100289
0.00993595
0.00991719
0.00996021
0.00989408
0.00992144
0.00989215
0.0099354
0.00985398
0.00984082
0.00997692
0.0100105
0.00998987
0.010034
0.0100685
0.00997302
0.0100923
0.00998824
0.00998235
0.00994463
0.0100303
0.010045
0.0100179
0.00995772
0.0100438
0.0100963
0.0100659
0.0100216
0.010002
0.00998234
0.00995398
0.0100499
0.0099388
0.00996516
0.0099643
0.00997999
0.010071
0.0100548
0.0100564
0.0101152
0.0101724
0.0101858
0.010158
0.0100978
0.0101432
0.0100136
0.00999351
0.0100135
0.0100001
0.00999128
0.0100772
0.0100876
0.0101454
0.0102888
0.0101769
0.0103182
0.0104511
)
;

boundaryField
{
    inlet
    {
        type            fixedValue;
        value           uniform 0.2;
    }
    outlet
    {
        type            zeroGradient;
    }
    yzfaces
    {
        type            empty;
    }
}


// ************************************************************************* //
