/*--------------------------------*- C++ -*----------------------------------*\
| =========                 |                                                 |
| \\      /  F ield         | foam-extend: Open Source CFD                    |
|  \\    /   O peration     | Version:     5.0                                |
|   \\  /    A nd           | Web:         http://www.foam-extend.org         |
|    \\/     M anipulation  |                                                 |
\*---------------------------------------------------------------------------*/
FoamFile
{
    version     2.0;
    format      ascii;
    class       volScalarField;
    location    "10";
    object      S.gas;
}
// * * * * * * * * * * * * * * * * * * * * * * * * * * * * * * * * * * * * * //

dimensions      [0 0 0 0 0 0 0];

internalField   nonuniform List<scalar> 
100
(
0.000395179
0.000638641
0.000865984
0.00108609
0.00130198
0.00151501
0.00172528
0.00193314
0.0021407
0.00234802
0.00255549
0.00276223
0.00296857
0.00317467
0.00338143
0.003589
0.00379616
0.00400375
0.00421084
0.00441935
0.00462818
0.00483993
0.00505059
0.00526406
0.0054794
0.00569605
0.00591488
0.00613943
0.00636246
0.00659503
0.0068282
0.00706786
0.00731396
0.00756746
0.00782858
0.00810276
0.00839223
0.00870079
0.00903444
0.00940348
0.00982099
0.0103057
0.0108981
0.0116498
0.0126853
0.0142398
0.0168522
0.0223138
0.0376275
0.088617
0.203504
0.345123
0.477959
0.595115
0.693355
0.773657
0.835675
0.880845
0.91067
0.929397
0.939216
0.944559
0.947319
0.948652
0.949432
0.949704
0.949958
0.950263
0.950555
0.950165
0.950121
0.950347
0.950467
0.950462
0.950104
0.950437
0.950579
0.95027
0.950214
0.949961
0.949961
0.949824
0.949826
0.949899
0.94979
0.949389
0.949661
0.949767
0.949506
0.949242
0.949039
0.948861
0.948747
0.948648
0.948785
0.948623
0.948122
0.948218
0.947421
0.94654
)
;

boundaryField
{
    inlet
    {
        type            calculated;
        value           uniform 0;
    }
    outlet
    {
        type            calculated;
        value           uniform 0.94654;
    }
    yzfaces
    {
        type            empty;
    }
}


// ************************************************************************* //
