/*--------------------------------*- C++ -*----------------------------------*\
| =========                 |                                                 |
| \\      /  F ield         | foam-extend: Open Source CFD                    |
|  \\    /   O peration     | Version:     5.0                                |
|   \\  /    A nd           | Web:         http://www.foam-extend.org         |
|    \\/     M anipulation  |                                                 |
\*---------------------------------------------------------------------------*/
FoamFile
{
    version     2.0;
    format      ascii;
    class       volScalarField;
    location    "8000";
    object      alpha.gas;
}
// * * * * * * * * * * * * * * * * * * * * * * * * * * * * * * * * * * * * * //

dimensions      [0 0 0 0 0 0 0];

internalField   nonuniform List<scalar> 
1000
(
2.33835e-30
1.00474e-27
9.17916e-25
2.75523e-23
4.33529e-23
4.99722e-22
3.97533e-21
1.45055e-20
2.3448e-19
1.65627e-18
1.54219e-18
9.00053e-16
1.97292e-13
3.55171e-12
1.91644e-11
2.9467e-11
1.65933e-10
1.96383e-10
3.90919e-10
5.03317e-10
1.22996e-09
1.47518e-09
2.93606e-08
8.06435e-07
4.74156e-06
1.17563e-05
2.07764e-05
3.12544e-05
4.15031e-05
5.33284e-05
6.25881e-05
7.81021e-05
8.98685e-05
0.000104426
0.000116451
0.000133845
0.000155151
0.000184316
0.00035258
0.00238137
0.00770906
0.00926629
0.0120953
0.008904
0.0123075
0.0120054
0.00834229
0.0113452
0.0127218
0.0100194
0.0126222
0.0122547
0.0137442
0.0127376
0.0110405
0.0139125
0.010136
0.0137953
0.0119708
0.0114158
0.0104045
0.0102134
0.0135474
0.0113798
0.0113161
0.0150323
0.0122276
0.0147086
0.0130022
0.0133756
0.0129914
0.0164958
0.0129411
0.0157937
0.0162549
0.0167342
0.0163264
0.0168127
0.0153961
0.020809
0.0194383
0.020063
0.0207199
0.0180315
0.0197831
0.0252619
0.0199516
0.029677
0.0281682
0.0306766
0.0217837
0.0286473
0.0345663
0.0295783
0.0291801
0.0358914
0.0395827
0.0437215
0.0316005
0.0378261
3.06699e-13
2.60714e-12
2.04566e-11
6.01944e-11
7.60022e-11
1.8301e-10
3.12801e-10
7.92107e-10
2.30108e-09
5.3705e-09
7.06986e-09
3.23026e-07
4.06459e-06
1.10937e-05
2.11771e-05
3.11228e-05
4.27291e-05
5.61937e-05
6.96125e-05
8.56125e-05
0.000102346
0.000158457
0.00126316
0.00584364
0.0100577
0.0124908
0.0139646
0.0123911
0.0148473
0.0108855
0.0171084
0.0122098
0.0140749
0.0144222
0.0155948
0.0201756
0.0163579
0.0211361
0.0197913
0.0173979
0.0223154
0.0188828
0.0210653
0.0213464
0.016711
0.0199254
0.0161522
0.0153477
0.0155554
0.0199682
0.0212934
0.0237219
0.0163737
0.0265253
0.0245911
0.025989
0.0228248
0.0207289
0.0278332
0.0278445
0.0218636
0.0149267
0.0158496
0.0187517
0.0218173
0.0162428
0.0256131
0.0183493
0.019934
0.0203621
0.0244468
0.0262142
0.0306022
0.0260676
0.0226134
0.0203415
0.0207225
0.0281459
0.024419
0.0351437
0.0239598
0.0274777
0.0373793
0.0254939
0.0259918
0.0397567
0.0322298
0.0311963
0.0283387
0.0397833
0.0426114
0.0455834
0.0331557
0.0299287
0.0366853
0.0417334
0.0364134
0.0351208
0.0337253
0.0414108
5.14968e-06
1.26367e-05
2.18967e-05
3.62113e-05
5.05993e-05
6.28785e-05
7.63117e-05
0.000102625
0.000150553
0.000182651
0.000645186
0.00561789
0.0101056
0.0140397
0.0129181
0.0151199
0.0164959
0.01611
0.0175044
0.0199101
0.0175605
0.0200382
0.0215627
0.0220282
0.0257178
0.025131
0.0188784
0.0214041
0.0171317
0.0196774
0.0281448
0.0249413
0.0252505
0.0255537
0.028311
0.0199115
0.0226388
0.0266721
0.0307494
0.0232332
0.0194995
0.0288163
0.0197915
0.0319199
0.0294755
0.0229465
0.0244839
0.0287798
0.028986
0.0250187
0.0237938
0.0225468
0.0269512
0.0299683
0.0330001
0.0317102
0.0231478
0.0217662
0.0217908
0.0289917
0.0230221
0.0202851
0.0217887
0.0204562
0.0275133
0.0299881
0.0242537
0.0261669
0.0252747
0.0314167
0.0348919
0.0281238
0.0240394
0.036538
0.0324964
0.036112
0.0350695
0.0242647
0.0327368
0.0365111
0.0404237
0.0410551
0.0312778
0.0422541
0.0375617
0.0344856
0.0404936
0.0448666
0.0399308
0.0463582
0.0295065
0.0338779
0.0384071
0.0369596
0.035445
0.0381002
0.0494927
0.0352063
0.04475
0.0503958
0.0124439
0.015619
0.0227885
0.0219201
0.018169
0.0183665
0.0196714
0.0232028
0.0237273
0.0210253
0.0181751
0.0209244
0.0250194
0.0256316
0.0236522
0.0202351
0.0256525
0.0221022
0.0223836
0.0213212
0.0309947
0.0231502
0.0288624
0.0332585
0.0251427
0.0295715
0.0241275
0.0214537
0.0317041
0.0319329
0.0248484
0.022077
0.0325989
0.0223677
0.0255102
0.027173
0.030364
0.0244197
0.0230095
0.0354495
0.0325048
0.024873
0.0343574
0.0360768
0.025205
0.0363966
0.0270142
0.0319182
0.0320473
0.0386067
0.0242148
0.0356497
0.0325144
0.0375082
0.0376094
0.0278636
0.0361385
0.0246705
0.0296246
0.0279518
0.0278793
0.0338733
0.0213652
0.021495
0.0261642
0.0228272
0.0335963
0.0269736
0.0335153
0.0325392
0.0235861
0.0254268
0.0289058
0.0243545
0.0376979
0.0298803
0.0402517
0.0288786
0.0308712
0.0329166
0.0280137
0.0371057
0.039318
0.0379805
0.0365966
0.0444131
0.0412678
0.0456044
0.0443403
0.0410693
0.0317228
0.0300624
0.0486023
0.0453264
0.0377188
0.0467921
0.0325412
0.0396357
0.0381518
0.0503912
0.0290461
0.0288769
0.0330417
0.0300019
0.0298959
0.0284418
0.0256518
0.0286444
0.033149
0.026131
0.032196
0.0250712
0.0222977
0.0239782
0.0286971
0.0243437
0.0291076
0.0370082
0.0341336
0.0280897
0.0266741
0.025233
0.026937
0.0334227
0.0255726
0.0304994
0.033852
0.032372
0.0276268
0.0261051
0.037672
0.0263019
0.0329978
0.0331119
0.0398669
0.0249945
0.0267446
0.0301771
0.0252174
0.0370853
0.0304166
0.0389623
0.0407523
0.0323367
0.0307075
0.0324899
0.0325637
0.0377887
0.0292604
0.0258711
0.0362919
0.02943
0.038149
0.0277814
0.0312944
0.0365459
0.0278601
0.0278724
0.0383274
0.0261141
0.0330555
0.0277645
0.0329684
0.0259228
0.0228275
0.0292728
0.0331075
0.0370032
0.0236012
0.0302196
0.0370257
0.0342552
0.0362972
0.0333784
0.0286647
0.035725
0.0257865
0.0398486
0.0262815
0.0282517
0.0373859
0.0395817
0.041853
0.0294706
0.027877
0.0337385
0.0284047
0.0420248
0.0309578
0.0312574
0.0433965
0.047995
0.0467358
0.0392542
0.0440216
0.0383827
0.0476617
0.0464622
0.0384977
0.034741
0.0255319
0.0290938
0.0358023
0.0358969
0.0293574
0.0309775
0.0375055
0.0277313
0.0359617
0.0376751
0.0361294
0.0263543
0.0347111
0.0281972
0.0366225
0.0367483
0.0268146
0.0252204
0.0320449
0.0372115
0.0407025
0.0357022
0.0323782
0.0307439
0.034236
0.0274477
0.037823
0.0344544
0.0310717
0.0294043
0.029462
0.0329908
0.0330511
0.0313669
0.0384032
0.0402137
0.0367737
0.0315674
0.0333693
0.0316563
0.038742
0.0423166
0.0300097
0.0406507
0.0424662
0.0283419
0.0390143
0.0266291
0.0319898
0.0373606
0.0409601
0.0427823
0.0321161
0.0303581
0.0357436
0.0268255
0.0357884
0.0358027
0.0322297
0.030442
0.0322324
0.0393894
0.0355425
0.0339213
0.0334388
0.032317
0.0363496
0.0373464
0.0285794
0.0289204
0.0389762
0.0296172
0.0348692
0.0251608
0.0320966
0.0306735
0.0274904
0.0380724
0.0297151
0.0405125
0.0267022
0.0430253
0.0435157
0.0421887
0.0371056
0.0337392
0.0397408
0.0402
0.0426257
0.0372991
0.0357627
0.0382056
0.0366745
0.043345
0.0482274
0.051273
0.0414723
0.0422735
0.0341018
0.0347811
0.0233969
0.0374319
0.0304596
0.0411498
0.0363386
0.0260277
0.0330072
0.0330389
0.0295885
0.0383337
0.0366292
0.0261958
0.0384799
0.0315277
0.0403473
0.0281074
0.0316681
0.0405212
0.0370433
0.0353212
0.0318247
0.033629
0.0372062
0.0266001
0.0372764
0.0426377
0.0408929
0.0320278
0.0391771
0.0285137
0.0321034
0.0356973
0.0321505
0.0321733
0.0411388
0.0357961
0.0376103
0.0394261
0.037657
0.0412677
0.0412912
0.0377211
0.0395376
0.0413547
0.0431719
0.0305925
0.0378054
0.0288143
0.0342287
0.0342395
0.0306445
0.0324565
0.0432869
0.0342774
0.0270673
0.0397063
0.0379078
0.0306914
0.0361115
0.0397264
0.0433409
0.0397287
0.0392911
0.0237768
0.0336366
0.0251652
0.0363678
0.0295897
0.0332104
0.0352807
0.0341063
0.0344789
0.0298518
0.0317718
0.025297
0.0390455
0.0257251
0.037978
0.0383517
0.0299289
0.0372571
0.0304516
0.0270841
0.0418192
0.0422795
0.0446158
0.0451624
0.0419296
0.0443707
0.0449622
0.0317151
0.0360389
0.0465922
0.0452814
0.0460299
0.0425953
0.0411749
0.0419086
0.0427338
0.0460031
0.0305856
0.0273375
0.031222
0.0313776
0.0370087
0.0444652
0.0296491
0.0370467
0.0444349
0.0370085
0.0388468
0.0332906
0.0295911
0.0295929
0.0388438
0.0295957
0.0295973
0.0369971
0.0277459
0.0295939
0.0277414
0.0351346
0.0314297
0.0388168
0.0277189
0.038798
0.0369399
0.0295438
0.0387671
0.0442929
0.0442802
0.0313568
0.0276615
0.031343
0.0387096
0.040545
0.0294824
0.0350041
0.0368409
0.0331524
0.0368307
0.0441916
0.0312999
0.0276132
0.0441727
0.0349655
0.0423181
0.0331113
0.0422973
0.0330923
0.0422701
0.0312314
0.0348917
0.0385477
0.0348596
0.0421761
0.0384849
0.0311336
0.0274526
0.0347506
0.043866
0.0310498
0.0359631
0.0269454
0.0251122
0.0240468
0.0353235
0.0283818
0.0368099
0.0390323
0.0362853
0.0250211
0.0252023
0.0355269
0.0290337
0.0292535
0.039879
0.0385344
0.0406876
0.0268153
0.041405
0.0291172
0.0440177
0.0352641
0.0299958
0.0434991
0.0344768
0.0348395
0.0332597
0.0316346
0.029962
0.0443732
0.0470886
0.033316
0.0485061
0.0408526
0.0372027
0.0334035
0.0339773
0.0392631
0.0507864
0.0532351
0.0347712
0.0392919
0.0552731
0.0458652
0.0502029
0.0522245
0.0519829
0.0540234
0.047105
0.038023
0.04239
0.0333863
0.0532963
0.042098
0.0353713
0.0374958
0.0352078
0.0482953
0.0525584
0.0502447
0.039224
0.0412993
0.0325228
0.0454179
0.0409901
0.0322808
0.0386418
0.0321234
0.0405911
0.0362321
0.0318937
0.0466662
0.0338616
0.0422277
0.050558
0.0483459
0.050339
0.0313957
0.0438529
0.0333398
0.0353429
0.0311145
0.0413898
0.0474928
0.030906
0.0328879
0.0492137
0.0368251
0.0306121
0.0346053
0.0466977
0.0364504
0.0363505
0.0342335
0.0421636
0.0400322
0.0399037
0.0357931
0.045577
0.0454046
0.0451133
0.036472
0.0256508
0.0335625
0.0262913
0.0384577
0.0358272
0.0415098
0.0280339
0.0405645
0.0391656
0.0358995
0.0361538
0.0272997
0.0329067
0.0349352
0.0388478
0.0298043
0.0374259
0.0414374
0.0455419
0.0363713
0.0443133
0.0388692
0.0391652
0.0414436
0.0298608
0.0480429
0.0303696
0.0427865
0.0370731
0.0478162
0.0484745
0.047079
0.0500107
0.0376818
0.0472637
0.0437969
0.0722269
0.0679719
0.0849288
0.0764523
0.0762047
0.0842305
0.0752961
0.0664204
0.0783046
0.0654687
0.0731964
0.0727687
0.0643372
0.0720211
0.0637102
0.0832279
0.0867876
0.0863914
0.0742694
0.0933745
0.0929384
0.0616649
0.0728648
0.0686876
0.0911232
0.0868914
0.0789369
0.0822761
0.0855791
0.0629331
0.077337
0.0696117
0.0765385
0.0543868
0.0865516
0.0825155
0.0713784
0.0567995
0.0706099
0.080764
0.0803351
0.0660114
0.0794679
0.0652962
0.0820192
0.0509874
0.0777231
0.0571298
0.0501115
0.0763711
0.0594223
0.0787426
0.0652281
0.0615796
0.0740648
0.0735948
0.0476854
0.0631269
0.0595444
0.0497668
0.0740446
0.0458654
0.0604396
0.0431614
0.0512025
0.0469196
0.0379116
0.0435603
0.0414584
0.0469334
0.0393143
0.0446149
0.0394275
0.0472959
0.0446808
0.0525171
0.0629987
0.047305
0.0472274
0.0523782
0.0601397
0.0444389
0.0625387
0.0547185
0.0494149
0.0492741
0.0542871
0.046416
0.0590435
0.0589051
0.0460026
0.0381167
0.0504314
0.0551916
0.0424849
0.0545264
0.0567242
0.0368501
0.0387893
0.0430898
)
;

boundaryField
{
    inlet
    {
        type            fixedValue;
        value           uniform 0.1;
    }
    outlet
    {
        type            zeroGradient;
    }
    walls
    {
        type            zeroGradient;
    }
}


// ************************************************************************* //
