/*--------------------------------*- C++ -*----------------------------------*\
| =========                 |                                                 |
| \\      /  F ield         | foam-extend: Open Source CFD                    |
|  \\    /   O peration     | Version:     5.0                                |
|   \\  /    A nd           | Web:         http://www.foam-extend.org         |
|    \\/     M anipulation  |                                                 |
\*---------------------------------------------------------------------------*/
FoamFile
{
    version     2.0;
    format      ascii;
    class       volScalarField;
    location    "8000";
    object      alpha.oil;
}
// * * * * * * * * * * * * * * * * * * * * * * * * * * * * * * * * * * * * * //

dimensions      [0 0 0 0 0 0 0];

internalField   nonuniform List<scalar> 
1000
(
0.22
0.22
0.17
0.19
0.17
0.16
0.15
0.2
0.15
0.16
0.24
0.22
0.24
0.24
0.23
0.15
0.17
0.24
0.2
0.23
0.24
0.19
0.18
0.209999
0.179995
0.169988
0.189979
0.219969
0.219958
0.149947
0.149937
0.219922
0.18991
0.189896
0.169884
0.219866
0.239845
0.229816
0.159647
0.197619
0.232291
0.190734
0.227905
0.161096
0.217693
0.207995
0.141658
0.188655
0.207278
0.159981
0.197378
0.187745
0.206256
0.187262
0.15896
0.196087
0.139864
0.186205
0.158026
0.147227
0.129822
0.114804
0.128043
0.0878138
0.0777771
0.0949004
0.0708566
0.0801919
0.0666122
0.0649507
0.0598648
0.0722922
0.0535935
0.0623107
0.0607927
0.0592929
0.0547501
0.0533846
0.0462209
0.0592109
0.0518457
0.0502645
0.0486407
0.0395564
0.0407519
0.0486297
0.0353939
0.0490119
0.0422422
0.041722
0.0265216
0.0318329
0.0342264
0.0253924
0.0218216
0.0231007
0.0208263
0.017655
0.0085677
0.00658185
0.16
0.22
0.18
0.19
0.24
0.24
0.16
0.24
0.2
0.19
0.17
0.19
0.209996
0.169989
0.169979
0.229969
0.149957
0.199944
0.18993
0.219914
0.179898
0.209842
0.168737
0.184156
0.179942
0.187509
0.196035
0.167609
0.195153
0.139115
0.212892
0.14779
0.165925
0.165578
0.174405
0.219824
0.173642
0.218864
0.200209
0.172602
0.217685
0.181117
0.198935
0.198654
0.153289
0.180075
0.143848
0.134652
0.134445
0.170032
0.178707
0.196278
0.133626
0.213475
0.195409
0.204011
0.177175
0.159271
0.212167
0.212008
0.168671
0.10674
0.0928728
0.0919006
0.0936062
0.0627652
0.0930475
0.0620277
0.0642025
0.0625779
0.071841
0.0733892
0.081551
0.0658239
0.0544155
0.0468627
0.045847
0.0598107
0.0493947
0.0679421
0.0436165
0.0477397
0.0616886
0.0393827
0.0381353
0.0553256
0.0415604
0.0375845
0.0318324
0.0418224
0.0408932
0.0394545
0.0253226
0.0205056
0.0225669
0.0222306
0.0159213
0.0122754
0.0088933
0.00733843
0.209995
0.209987
0.149978
0.169964
0.239949
0.209937
0.209924
0.199897
0.199849
0.169817
0.219355
0.234382
0.159894
0.17596
0.147082
0.16488
0.173504
0.16389
0.172496
0.19009
0.162439
0.179962
0.188437
0.187972
0.214282
0.204869
0.151122
0.168596
0.132868
0.150323
0.211855
0.185059
0.184749
0.184446
0.201689
0.140089
0.157361
0.183328
0.209251
0.156767
0.130501
0.191184
0.130209
0.20808
0.190525
0.147053
0.155516
0.18122
0.181014
0.154981
0.146206
0.137453
0.163049
0.180032
0.197
0.18829
0.136852
0.128234
0.128209
0.171008
0.13671
0.120483
0.118343
0.0920771
0.10746
0.102715
0.0754491
0.0767389
0.0703631
0.0836477
0.0884136
0.0677546
0.0556715
0.081854
0.0694999
0.074131
0.068857
0.0456033
0.0596038
0.0638129
0.0674787
0.0651218
0.0469976
0.0607617
0.0509348
0.0442359
0.0491957
0.0510829
0.0421085
0.0453904
0.0262953
0.0282184
0.0294964
0.025682
0.0221314
0.0211942
0.0238533
0.0134435
0.0137626
0.0102875
0.167556
0.164381
0.217212
0.19808
0.161831
0.161633
0.170329
0.196797
0.196273
0.168975
0.141825
0.159076
0.184981
0.184368
0.166348
0.139765
0.174348
0.147898
0.147616
0.138679
0.199005
0.14685
0.181138
0.206742
0.154857
0.180429
0.145873
0.128546
0.188296
0.188067
0.145152
0.127923
0.187401
0.127632
0.14449
0.152827
0.169636
0.13558
0.126991
0.19455
0.177495
0.135127
0.185643
0.193923
0.134795
0.193603
0.142986
0.168082
0.167953
0.201393
0.125785
0.18435
0.167486
0.192492
0.192391
0.142136
0.183862
0.12533
0.150375
0.142048
0.142111
0.173239
0.105336
0.0906082
0.093828
0.0716773
0.0977183
0.0720724
0.0849918
0.0781263
0.0539948
0.0563115
0.0619508
0.0503848
0.0757197
0.0574979
0.0748428
0.0513266
0.0530642
0.0545898
0.0446913
0.0572311
0.0580186
0.0534312
0.0490838
0.056805
0.0496645
0.0516565
0.0467125
0.0400932
0.0286413
0.0254118
0.0384383
0.0318494
0.0233032
0.0254731
0.0146233
0.0150029
0.011128
0.0101838
0.170954
0.171123
0.196958
0.179998
0.180104
0.171558
0.154348
0.171356
0.196851
0.153869
0.187804
0.144929
0.127702
0.136022
0.161303
0.135656
0.160892
0.202992
0.185866
0.15191
0.143326
0.134767
0.143063
0.176577
0.134427
0.159501
0.176148
0.167628
0.142373
0.133895
0.192328
0.133698
0.167002
0.166888
0.200133
0.125006
0.133255
0.149823
0.124783
0.182915
0.149583
0.191038
0.199248
0.157663
0.149293
0.15751
0.157436
0.182211
0.14074
0.124129
0.173708
0.14057
0.181851
0.132219
0.148706
0.173454
0.13214
0.132128
0.181673
0.123886
0.156944
0.132013
0.156308
0.112312
0.0822942
0.0933073
0.0948107
0.0971399
0.0576978
0.0712442
0.0837608
0.0739895
0.0753284
0.0664797
0.0550071
0.066359
0.0460408
0.0690702
0.0435689
0.0454028
0.0580936
0.0588375
0.0591935
0.0394432
0.0357726
0.0415608
0.0332684
0.0470748
0.0324054
0.0310207
0.0407702
0.0415636
0.0365346
0.0273056
0.0273371
0.0205571
0.0218522
0.0167471
0.00981488
0.0054207
0.134468
0.150906
0.184198
0.184103
0.150643
0.159022
0.192495
0.142269
0.184038
0.192325
0.183871
0.133646
0.175289
0.141803
0.183377
0.183252
0.133185
0.12478
0.157955
0.182788
0.199298
0.174298
0.157622
0.149256
0.165764
0.132552
0.182177
0.165546
0.148928
0.140596
0.140538
0.157009
0.156949
0.148633
0.181597
0.189786
0.173226
0.148433
0.156631
0.148344
0.181258
0.197683
0.13999
0.189349
0.197534
0.131658
0.180986
0.123371
0.14801
0.172639
0.18904
0.197218
0.147884
0.139642
0.164256
0.123174
0.164212
0.164197
0.14777
0.139558
0.147768
0.180608
0.16302
0.153225
0.133419
0.106751
0.105298
0.0977016
0.0694916
0.0673537
0.0873081
0.0632391
0.0719883
0.0500087
0.0621071
0.0574075
0.0498243
0.0670864
0.0503064
0.0664833
0.041953
0.0656289
0.0632339
0.0582256
0.0485668
0.042028
0.0472033
0.0450297
0.044789
0.0364352
0.0325651
0.0323245
0.0284653
0.030703
0.0303062
0.0274936
0.0179607
0.0144913
0.008294
0.00533944
0.126603
0.192568
0.14954
0.19885
0.173661
0.123972
0.156993
0.156961
0.140412
0.181666
0.173371
0.123804
0.18152
0.148472
0.189653
0.131893
0.148332
0.189479
0.172957
0.164679
0.148175
0.156371
0.172794
0.1234
0.172724
0.197362
0.189107
0.147972
0.180823
0.131486
0.147897
0.164303
0.14785
0.147827
0.188861
0.164204
0.17239
0.180574
0.172343
0.188732
0.188709
0.172279
0.180462
0.188645
0.196828
0.139407
0.172195
0.131186
0.155771
0.15576
0.139355
0.147544
0.196713
0.155723
0.122933
0.180294
0.172092
0.139309
0.163888
0.180274
0.196659
0.180265
0.178266
0.105285
0.132574
0.0811743
0.106084
0.0776641
0.0823185
0.083022
0.0765616
0.0743164
0.0619512
0.0638697
0.0491909
0.0739643
0.046799
0.0672496
0.0652467
0.0488693
0.0588764
0.0461619
0.0396402
0.05932
0.0570952
0.0572013
0.0546065
0.0475802
0.0472631
0.0445428
0.0289811
0.030942
0.0370472
0.0322372
0.0289427
0.0230097
0.0187893
0.0156586
0.0121818
0.00854536
0.139414
0.122663
0.138778
0.138622
0.162991
0.195535
0.130351
0.162953
0.195565
0.162991
0.171153
0.146709
0.130409
0.130407
0.171156
0.130404
0.130403
0.163003
0.122254
0.130406
0.122259
0.154865
0.13857
0.171183
0.122281
0.171202
0.16306
0.130456
0.171233
0.195707
0.19572
0.138643
0.122338
0.138657
0.17129
0.179455
0.130518
0.154996
0.163159
0.146848
0.163169
0.195808
0.1387
0.122387
0.195827
0.155034
0.187682
0.146889
0.187703
0.146908
0.18773
0.138769
0.155108
0.171452
0.15514
0.187824
0.171515
0.138866
0.122547
0.155249
0.196134
0.138937
0.160964
0.116851
0.0934963
0.076667
0.102333
0.0742245
0.0909607
0.0908155
0.0800525
0.0528552
0.0517196
0.0709259
0.0558333
0.0545702
0.0721467
0.0668804
0.067745
0.0426836
0.063884
0.0427997
0.0623847
0.0472688
0.0382893
0.0531162
0.0394512
0.0376727
0.0338539
0.0302743
0.0269177
0.0374715
0.0359652
0.0224753
0.0294549
0.0208199
0.0157072
0.0112839
0.00877111
0.00665319
0.169214
0.176765
0.115229
0.130708
0.184727
0.154135
0.169797
0.177775
0.178017
0.185977
0.162895
0.131977
0.14761
0.116614
0.186704
0.147902
0.124629
0.132504
0.124792
0.171705
0.187442
0.179755
0.140776
0.148701
0.117477
0.164582
0.14901
0.117719
0.141358
0.117877
0.149409
0.133768
0.118106
0.173334
0.126138
0.157772
0.189442
0.181654
0.189661
0.118604
0.166147
0.12666
0.134657
0.118885
0.15861
0.182507
0.119094
0.127112
0.190786
0.143175
0.119388
0.135395
0.183302
0.14355
0.14365
0.135766
0.167836
0.159968
0.160096
0.144207
0.184423
0.184595
0.184414
0.14907
0.0944123
0.106131
0.0718792
0.0980283
0.0844008
0.0926178
0.0593585
0.0833792
0.0772724
0.0682011
0.0663702
0.0484375
0.0568915
0.0585402
0.06299
0.0465585
0.0568107
0.060593
0.0638306
0.0484943
0.0567083
0.047179
0.0452294
0.0453953
0.0307998
0.0473304
0.0276017
0.0368302
0.029308
0.0348381
0.0313416
0.0263369
0.0235387
0.0139497
0.013829
0.00790882
0.0977731
0.0920281
0.115071
0.103548
0.103795
0.115769
0.104704
0.0935796
0.111695
0.0945313
0.106804
0.107231
0.0956628
0.107979
0.0962898
0.126772
0.133212
0.133609
0.115731
0.146625
0.147062
0.0983351
0.117135
0.111312
0.148877
0.143109
0.131063
0.137724
0.144421
0.107067
0.132663
0.120388
0.133461
0.0956132
0.153448
0.147485
0.128622
0.103201
0.12939
0.149236
0.149665
0.123989
0.150532
0.124704
0.157981
0.0990126
0.152277
0.11287
0.0998885
0.153629
0.120578
0.161257
0.134772
0.12842
0.155935
0.156405
0.102315
0.136873
0.130456
0.110233
0.165955
0.104135
0.139467
0.101619
0.115659
0.0884659
0.0615601
0.0660462
0.0593759
0.0646617
0.0522247
0.0578734
0.0498281
0.0586007
0.0540417
0.0622053
0.0727336
0.052813
0.0515523
0.0558813
0.0624611
0.044581
0.0612866
0.0514984
0.0448805
0.0432839
0.046034
0.0376736
0.0461229
0.0434085
0.0316835
0.0248451
0.0312877
0.0315846
0.0217765
0.0253484
0.0223335
0.0113179
0.0095587
0.00723621
)
;

boundaryField
{
    inlet
    {
        type            fixedValue;
        value           uniform 0;
    }
    outlet
    {
        type            zeroGradient;
    }
    walls
    {
        type            zeroGradient;
    }
}


// ************************************************************************* //
