/*--------------------------------*- C++ -*----------------------------------*\
| =========                 |                                                 |
| \\      /  F ield         | foam-extend: Open Source CFD                    |
|  \\    /   O peration     | Version:     5.0                                |
|   \\  /    A nd           | Web:         http://www.foam-extend.org         |
|    \\/     M anipulation  |                                                 |
\*---------------------------------------------------------------------------*/
FoamFile
{
    version     2.0;
    format      ascii;
    class       volScalarField;
    location    "8000";
    object      alpha.water;
}
// * * * * * * * * * * * * * * * * * * * * * * * * * * * * * * * * * * * * * //

dimensions      [0 0 0 0 0 0 0];

internalField   nonuniform List<scalar> 
1000
(
0
0
0
0
0
0
0
0
0
0
0
0
0
0
0
0
0
0
0
0
0
0
0
0
0
0
0
0
0
0
0
0
0
0
0
0
0
0
0
0
0
0
0
0
0
0
0
0
0
0
0
0
0
0
0
0
0
8.78888e-12
3.03028e-06
0.00135764
0.0197737
0.0549821
0.09841
0.0908064
0.0909068
0.120067
0.0969158
0.1151
0.100386
0.101674
0.0971438
0.121212
0.0934654
0.111896
0.112952
0.113973
0.108924
0.109803
0.098383
0.12998
0.118716
0.119673
0.120639
0.102412
0.109465
0.136108
0.104654
0.151311
0.13959
0.147601
0.101695
0.12952
0.151207
0.125029
0.118998
0.141008
0.149591
0.158624
0.109832
0.125592
0
0
0
0
0
0
0
0
0
0
0
0
0
0
0
0
0
0
0
0
0
0
0
0
0
0
0
0
0
0
0
0
0
0
0
0
0
0
0
0
0
0
0
0
0
0
0
0
0
0
0
0
0
0
0
0
0
7.78155e-17
1.34111e-08
0.000147082
0.0094657
0.0383336
0.0612776
0.0793477
0.0945765
0.0709921
0.111339
0.0796229
0.0858635
0.0870599
0.103712
0.110397
0.127847
0.108108
0.0929711
0.0827958
0.0834305
0.112043
0.0961863
0.136914
0.0924237
0.104783
0.140932
0.0951235
0.0958729
0.144918
0.11621
0.111219
0.0998289
0.138394
0.146495
0.154962
0.111522
0.0995656
0.120748
0.136036
0.117665
0.112604
0.107381
0.131251
0
0
0
0
0
0
0
0
0
0
0
0
0
0
0
0
0
0
0
0
0
0
0
0
0
0
0
0
0
0
0
0
0
0
0
0
0
0
0
0
0
0
0
0
0
0
0
0
0
0
0
0
0
0
0
0
0
0
6.73073e-15
1.03377e-07
0.000267477
0.00923215
0.0398683
0.0574668
0.0850268
0.0972972
0.0802972
0.0870942
0.0843622
0.104936
0.116695
0.0941216
0.0802892
0.121608
0.108004
0.119757
0.116074
0.0801321
0.107659
0.119676
0.132098
0.133823
0.101725
0.136984
0.121503
0.111278
0.130311
0.14405
0.127961
0.148251
0.0941983
0.107904
0.122097
0.117358
0.112424
0.120706
0.156654
0.11135
0.141487
0.159317
0
0
0
0
0
0
0
0
0
0
0
0
0
0
0
0
0
0
0
0
0
0
0
0
0
0
0
0
0
0
0
0
0
0
0
0
0
0
0
0
0
0
0
0
0
0
0
0
0
0
0
0
0
0
0
0
0
0
6.82559e-21
1.06121e-10
9.8574e-06
0.00288738
0.0232985
0.0478969
0.0700078
0.0654956
0.0986855
0.080954
0.101493
0.0993345
0.0724192
0.0782617
0.0891434
0.0752607
0.116582
0.0926218
0.124905
0.0897948
0.0960646
0.102494
0.087295
0.115663
0.122663
0.118588
0.11432
0.138782
0.129068
0.142739
0.138947
0.128838
0.0996359
0.0945258
0.152959
0.142824
0.118978
0.147735
0.102836
0.125361
0.12072
0.159425
0
0
0
0
0
0
0
0
0
0
0
0
0
0
0
0
0
0
0
0
0
0
0
0
0
0
0
0
0
0
0
0
0
0
0
0
0
0
0
0
0
0
0
0
0
0
0
0
0
0
0
0
0
0
0
0
0
0
0
4.58424e-15
7.82055e-08
0.000222572
0.0107235
0.0417652
0.0548784
0.0774198
0.0920818
0.105857
0.068701
0.0885362
0.109213
0.101755
0.108374
0.100142
0.0863282
0.107916
0.0781727
0.121081
0.0801496
0.0863456
0.114521
0.121581
0.128954
0.0910862
0.0863505
0.104701
0.0883269
0.1309
0.0966368
0.0977219
0.135833
0.150441
0.14673
0.12344
0.138641
0.12106
0.150486
0.146791
0.121687
0.109838
0
0
0
0
0
0
0
0
0
0
0
0
0
0
0
0
0
0
0
0
0
0
0
0
0
0
0
0
0
0
0
0
0
0
0
0
0
0
0
0
0
0
0
0
0
0
0
0
0
0
0
0
0
0
0
0
0
0
0
0
5.08669e-12
2.76269e-06
0.0014378
0.022854
0.063142
0.0809321
0.0983524
0.104952
0.081929
0.0837259
0.113716
0.0871437
0.103142
0.0748305
0.0957964
0.091919
0.0826853
0.114841
0.0899786
0.123004
0.0813448
0.131346
0.13325
0.129586
0.114328
0.104233
0.123056
0.12477
0.132585
0.116266
0.111672
0.11947
0.11486
0.135952
0.151466
0.161233
0.130567
0.133235
0.107604
0.109879
0
0
0
0
0
0
0
0
0
0
0
0
0
0
0
0
0
0
0
0
0
0
0
0
0
0
0
0
0
0
0
0
0
0
0
0
0
0
0
0
0
0
0
0
0
0
0
0
0
0
0
0
0
0
0
0
0
0
0
0
3.00288e-11
6.65859e-06
0.00244248
0.0209385
0.0637897
0.0636605
0.0975479
0.0827462
0.0944711
0.101697
0.099332
0.101205
0.088197
0.0943585
0.0755121
0.11699
0.0774759
0.114772
0.116402
0.0912018
0.113866
0.0933865
0.0832757
0.128861
0.130625
0.138183
0.140231
0.13049
0.138366
0.140495
0.0993039
0.113019
0.146361
0.142481
0.145027
0.134395
0.130036
0.132433
0.135084
0.145452
0
0
0
0
0
0
0
0
0
0
0
0
0
0
0
0
0
0
0
0
0
0
0
0
0
0
0
0
0
0
0
0
0
0
0
0
0
0
0
0
0
0
0
0
0
0
0
0
0
0
0
0
0
0
0
0
0
0
0
1.50053e-20
1.97807e-10
1.30752e-05
0.00307313
0.0262036
0.0513915
0.0592861
0.092344
0.0773937
0.102229
0.110152
0.103662
0.0721237
0.0730781
0.103547
0.085133
0.0861763
0.117974
0.114585
0.121567
0.0805011
0.124711
0.088083
0.133598
0.107467
0.0917149
0.133385
0.106072
0.107488
0.102886
0.0980911
0.0931203
0.138155
0.146946
0.104209
0.152039
0.128327
0.11709
0.105313
0.107252
0.124084
0
0
0
0
0
0
0
0
0
0
0
0
0
0
0
0
0
0
0
0
0
0
0
0
0
0
0
0
0
0
0
0
0
0
0
0
0
0
0
0
0
0
0
0
0
0
0
0
0
0
0
0
0
0
0
0
0
0
0
0
1.89992e-14
1.86771e-07
0.000472518
0.0144578
0.039937
0.0703062
0.0618296
0.093514
0.089772
0.105872
0.0726077
0.106056
0.103562
0.0958994
0.097476
0.0742628
0.0902018
0.0965246
0.108162
0.0836372
0.105763
0.11797
0.130628
0.105134
0.128978
0.113952
0.115605
0.123161
0.0893393
0.144627
0.0920287
0.130383
0.113619
0.147346
0.150184
0.146584
0.156451
0.118369
0.148907
0.138294
0
0
0
0
0
0
0
0
0
0
0
0
0
0
0
0
0
0
0
0
0
0
0
0
0
0
0
0
0
0
0
0
0
0
0
0
0
0
0
0
0
0
0
0
0
0
0
0
0
0
0
0
0
0
0
0
0
0
0
0
9.76224e-17
8.96377e-09
9.37187e-05
0.00521983
0.0331381
0.0546145
0.0505284
0.0603935
0.0591657
0.0684049
0.0584609
0.0675117
0.0607444
0.0741034
0.0712775
0.0852777
0.104268
0.0798821
0.0812203
0.0917405
0.107399
0.0809801
0.116175
0.103783
0.0957046
0.097442
0.109679
0.0959105
0.124834
0.127686
0.102314
0.0870382
0.118281
0.133224
0.105739
0.140125
0.150942
0.101832
0.111652
0.129674
)
;

boundaryField
{
    inlet
    {
        type            fixedValue;
        value           uniform 0.1;
    }
    outlet
    {
        type            zeroGradient;
    }
    walls
    {
        type            zeroGradient;
    }
}


// ************************************************************************* //
