/*--------------------------------*- C++ -*----------------------------------*\
| =========                 |                                                 |
| \\      /  F ield         | foam-extend: Open Source CFD                    |
|  \\    /   O peration     | Version:     5.0                                |
|   \\  /    A nd           | Web:         http://www.foam-extend.org         |
|    \\/     M anipulation  |                                                 |
\*---------------------------------------------------------------------------*/
FoamFile
{
    version     2.0;
    format      ascii;
    class       volScalarField;
    location    "8000";
    object      p;
}
// * * * * * * * * * * * * * * * * * * * * * * * * * * * * * * * * * * * * * //

dimensions      [1 -1 -2 0 0 0 0];

internalField   nonuniform List<scalar> 
1000
(
0.100755
0.102217
0.103652
0.105072
0.106481
0.107885
0.109285
0.110683
0.11208
0.113477
0.114875
0.116277
0.117681
0.119085
0.120489
0.121893
0.123298
0.124703
0.126108
0.127514
0.128921
0.130328
0.131739
0.13316
0.134583
0.136006
0.13743
0.138855
0.140281
0.141707
0.143135
0.144564
0.145994
0.147424
0.148856
0.150287
0.151718
0.153147
0.154575
0.156014
0.157471
0.158928
0.160383
0.161837
0.163291
0.164745
0.166201
0.167657
0.169114
0.170572
0.17203
0.173488
0.174946
0.176404
0.177859
0.179312
0.180759
0.182196
0.183615
0.185019
0.186666
0.188644
0.190644
0.192583
0.194496
0.196383
0.198234
0.20006
0.201857
0.203629
0.205376
0.207099
0.208795
0.210467
0.212115
0.21374
0.215342
0.216923
0.21848
0.220018
0.221528
0.223014
0.224476
0.225911
0.227324
0.228714
0.230074
0.231411
0.232717
0.233995
0.23524
0.236461
0.23765
0.238806
0.239932
0.241029
0.242089
0.24311
0.244087
0.245028
0.100726
0.102165
0.103589
0.105003
0.106409
0.10781
0.109209
0.110606
0.112001
0.113397
0.114794
0.116197
0.117602
0.119007
0.12041
0.121814
0.123219
0.124624
0.12603
0.127436
0.128841
0.130245
0.131654
0.133083
0.134512
0.135937
0.137361
0.138786
0.140212
0.141639
0.143067
0.144496
0.145926
0.147358
0.148789
0.150222
0.151654
0.153087
0.154522
0.155963
0.157411
0.158863
0.160316
0.161769
0.163223
0.164677
0.166133
0.167589
0.169046
0.170504
0.171963
0.173422
0.17488
0.176339
0.177796
0.179251
0.180703
0.182149
0.183586
0.185016
0.186558
0.188469
0.190472
0.19245
0.19439
0.196285
0.19815
0.199977
0.201778
0.203553
0.205302
0.207025
0.208722
0.210393
0.21204
0.213665
0.215267
0.216849
0.218407
0.219944
0.221454
0.222941
0.224404
0.225839
0.227252
0.228642
0.230002
0.231336
0.232642
0.233921
0.235169
0.236389
0.237575
0.238732
0.23986
0.240955
0.242013
0.243033
0.244015
0.244958
0.10071
0.102128
0.103538
0.104941
0.106341
0.107738
0.109134
0.110529
0.111923
0.113316
0.114706
0.116117
0.117534
0.11894
0.120343
0.121747
0.123152
0.124558
0.125964
0.127372
0.128779
0.130188
0.131601
0.133021
0.134445
0.135868
0.137292
0.138717
0.140143
0.14157
0.142998
0.144428
0.145858
0.14729
0.148722
0.150156
0.15159
0.153025
0.154463
0.155905
0.157351
0.158801
0.160252
0.161704
0.163158
0.164612
0.166068
0.167524
0.168982
0.17044
0.171899
0.173359
0.174819
0.176279
0.177739
0.179199
0.180657
0.182115
0.183573
0.18504
0.186542
0.188219
0.190218
0.192265
0.194257
0.196182
0.198057
0.199895
0.201701
0.20348
0.205229
0.206949
0.208646
0.210321
0.21197
0.213596
0.215198
0.216776
0.218335
0.219872
0.221384
0.222872
0.224333
0.225771
0.227182
0.22857
0.229932
0.231267
0.232571
0.233849
0.235094
0.236314
0.237504
0.238662
0.239788
0.240883
0.241942
0.242961
0.243946
0.244891
0.100708
0.102111
0.103507
0.104898
0.10629
0.107683
0.109076
0.11047
0.111864
0.113258
0.114654
0.116058
0.117465
0.118869
0.120273
0.121677
0.123083
0.124489
0.125896
0.127304
0.128714
0.130125
0.131539
0.132958
0.134379
0.135801
0.137225
0.13865
0.140076
0.141503
0.142932
0.144362
0.145793
0.147225
0.148658
0.150092
0.151528
0.152965
0.154404
0.155847
0.157292
0.158741
0.160191
0.161643
0.163096
0.16455
0.166006
0.167463
0.16892
0.170379
0.171839
0.1733
0.174761
0.176224
0.177687
0.179151
0.180616
0.182084
0.183557
0.18504
0.186542
0.188096
0.189976
0.192052
0.19409
0.196052
0.197959
0.199808
0.201621
0.2034
0.205149
0.206872
0.20857
0.210244
0.211896
0.213522
0.215126
0.216704
0.218262
0.219798
0.221309
0.222799
0.224262
0.225699
0.22711
0.228499
0.229859
0.231194
0.232499
0.233774
0.235021
0.236241
0.237435
0.238594
0.239719
0.240813
0.241868
0.242889
0.243871
0.244816
0.100697
0.102087
0.103473
0.104857
0.106242
0.107628
0.109017
0.110408
0.1118
0.113195
0.114592
0.115992
0.117396
0.1188
0.120204
0.121609
0.123014
0.124421
0.125829
0.127238
0.128649
0.130061
0.131476
0.132894
0.134314
0.135736
0.13716
0.138584
0.140011
0.141438
0.142867
0.144297
0.145728
0.147161
0.148595
0.15003
0.151466
0.152905
0.154345
0.155788
0.157234
0.158681
0.160131
0.161582
0.163035
0.16449
0.165945
0.167402
0.16886
0.17032
0.17178
0.173242
0.174705
0.17617
0.177636
0.179104
0.180576
0.182051
0.183533
0.185026
0.186533
0.188064
0.189752
0.191811
0.193905
0.195919
0.197852
0.199717
0.201531
0.203317
0.205073
0.206797
0.208496
0.210169
0.211819
0.213447
0.21505
0.216632
0.218188
0.219724
0.221237
0.222727
0.22419
0.225625
0.227035
0.228423
0.229783
0.231118
0.232422
0.233698
0.234949
0.236172
0.237364
0.238522
0.23965
0.240742
0.241799
0.242818
0.243796
0.244732
0.100696
0.102078
0.103451
0.104824
0.1062
0.107579
0.108962
0.110348
0.111738
0.113131
0.114527
0.115927
0.117328
0.118731
0.120135
0.12154
0.122947
0.124354
0.125762
0.127172
0.128584
0.129997
0.131412
0.13283
0.13425
0.135671
0.137095
0.138519
0.139946
0.141373
0.142802
0.144232
0.145664
0.147097
0.148532
0.149967
0.151405
0.152844
0.154285
0.155728
0.157174
0.158621
0.160071
0.161522
0.162974
0.164429
0.165884
0.167341
0.1688
0.17026
0.171721
0.173185
0.174649
0.176116
0.177585
0.179057
0.180532
0.182013
0.1835
0.184998
0.186509
0.18804
0.189634
0.191555
0.193721
0.195782
0.19774
0.199618
0.201442
0.203232
0.204992
0.206716
0.208417
0.21009
0.211742
0.21337
0.214975
0.216559
0.218116
0.219652
0.221162
0.222653
0.224116
0.225553
0.226964
0.22835
0.22971
0.231044
0.232349
0.233624
0.234873
0.236096
0.237289
0.238451
0.239579
0.240672
0.241726
0.242743
0.24372
0.244656
0.100697
0.10207
0.10343
0.104793
0.106159
0.10753
0.108907
0.110289
0.111676
0.113067
0.114462
0.115861
0.117261
0.118664
0.120068
0.121473
0.122879
0.124287
0.125696
0.127106
0.128518
0.129932
0.131348
0.132765
0.134185
0.135606
0.137029
0.138454
0.13988
0.141308
0.142737
0.144168
0.1456
0.147033
0.148468
0.149904
0.151342
0.152782
0.154224
0.155667
0.157113
0.15856
0.160009
0.16146
0.162913
0.164367
0.165823
0.16728
0.168739
0.170199
0.171662
0.173126
0.174592
0.17606
0.177531
0.179006
0.180485
0.181968
0.183459
0.184957
0.186464
0.187978
0.189526
0.191433
0.193578
0.195643
0.197621
0.199511
0.20135
0.203147
0.204907
0.206635
0.208335
0.210012
0.211663
0.213295
0.214899
0.216484
0.218042
0.219576
0.221088
0.222575
0.224038
0.225478
0.22689
0.228277
0.229636
0.230968
0.232273
0.233549
0.234796
0.23602
0.237215
0.238377
0.239505
0.240596
0.24165
0.242668
0.243647
0.244587
0.100684
0.102042
0.103396
0.104752
0.106112
0.107477
0.108849
0.110228
0.111613
0.113003
0.114397
0.115794
0.117194
0.118597
0.120001
0.121406
0.122812
0.12422
0.12563
0.12704
0.128453
0.129867
0.131282
0.1327
0.13412
0.135541
0.136964
0.138388
0.139815
0.141242
0.142672
0.144103
0.145535
0.146969
0.148404
0.149841
0.151279
0.152719
0.154161
0.155605
0.15705
0.158498
0.159947
0.161398
0.16285
0.164304
0.16576
0.167218
0.168677
0.170138
0.1716
0.173065
0.174532
0.176002
0.177475
0.178951
0.180432
0.181918
0.18341
0.184908
0.186412
0.187916
0.189443
0.191318
0.193441
0.195512
0.197503
0.199407
0.201258
0.203061
0.204822
0.206551
0.208254
0.209934
0.211586
0.213217
0.214825
0.216408
0.217967
0.219499
0.221013
0.2225
0.223965
0.225401
0.226812
0.2282
0.229558
0.230889
0.232193
0.23347
0.234719
0.235945
0.237139
0.2383
0.23943
0.240521
0.241575
0.242591
0.243571
0.244511
0.100671
0.102017
0.103362
0.104711
0.106064
0.107424
0.108792
0.110168
0.111551
0.11294
0.114334
0.115731
0.117132
0.118534
0.119938
0.121343
0.12275
0.124158
0.125567
0.126978
0.128391
0.129805
0.13122
0.132638
0.134057
0.135479
0.136902
0.138326
0.139752
0.14118
0.142609
0.14404
0.145473
0.146907
0.148342
0.149779
0.151218
0.152658
0.1541
0.155544
0.15699
0.158437
0.159886
0.161337
0.16279
0.164244
0.165699
0.167157
0.168616
0.170077
0.17154
0.173006
0.174473
0.175944
0.177418
0.178895
0.180377
0.181864
0.183357
0.184857
0.186363
0.187877
0.189408
0.191159
0.193283
0.195391
0.197388
0.199312
0.201167
0.202975
0.204738
0.206474
0.208179
0.209858
0.211511
0.213141
0.214749
0.216332
0.217891
0.219425
0.220938
0.222426
0.223891
0.225326
0.226738
0.228123
0.229481
0.230813
0.232117
0.233396
0.234643
0.235867
0.237061
0.238225
0.239355
0.240448
0.241503
0.242517
0.2435
0.244439
0.100666
0.102005
0.103346
0.104688
0.106036
0.107391
0.108755
0.110129
0.11151
0.112899
0.114293
0.11569
0.117091
0.118493
0.119897
0.121302
0.122709
0.124117
0.125527
0.126938
0.12835
0.129763
0.131179
0.132596
0.134016
0.135437
0.136859
0.138284
0.13971
0.141137
0.142567
0.143997
0.14543
0.146863
0.148299
0.149736
0.151175
0.152615
0.154057
0.155501
0.156946
0.158394
0.159843
0.161293
0.162745
0.164199
0.165655
0.167112
0.168571
0.170032
0.171495
0.172961
0.174429
0.1759
0.177374
0.178852
0.180334
0.181821
0.183315
0.184815
0.186324
0.187845
0.189388
0.19108
0.193152
0.195292
0.197303
0.199232
0.201093
0.202904
0.204671
0.206408
0.208113
0.209794
0.211449
0.213081
0.214689
0.216269
0.217828
0.219363
0.220876
0.222362
0.223827
0.225263
0.226672
0.228057
0.229416
0.230747
0.232053
0.233331
0.234576
0.235797
0.236992
0.238156
0.239282
0.240378
0.241434
0.242445
0.243425
0.244365
)
;

boundaryField
{
    inlet
    {
        type            fluxPressure;
        gradient        nonuniform List<scalar> 10(0.00363636 0.00363636 0.00363636 0.00363636 0.00363636 0.00363636 0.00363636 0.00363636 0.00363636 0.00363636);
        value           nonuniform List<scalar> 10(0.24521 0.24514 0.245072 0.244997 0.244914 0.244838 0.244769 0.244693 0.24462 0.244546);
    }
    outlet
    {
        type            fixedValue;
        value           uniform 0.1;
    }
    walls
    {
        type            fluxPressure;
        gradient        uniform 0;
        value           nonuniform List<scalar> 
2200
(
0.100755
0.102217
0.103652
0.105072
0.106481
0.107885
0.109285
0.110683
0.11208
0.113477
0.114875
0.116277
0.117681
0.119085
0.120489
0.121893
0.123298
0.124703
0.126108
0.127514
0.128921
0.130328
0.131739
0.13316
0.134583
0.136006
0.13743
0.138855
0.140281
0.141707
0.143135
0.144564
0.145994
0.147424
0.148856
0.150287
0.151718
0.153147
0.154575
0.156014
0.157471
0.158928
0.160383
0.161837
0.163291
0.164745
0.166201
0.167657
0.169114
0.170572
0.17203
0.173488
0.174946
0.176404
0.177859
0.179312
0.180759
0.182196
0.183615
0.185019
0.186666
0.188644
0.190644
0.192583
0.194496
0.196383
0.198234
0.20006
0.201857
0.203629
0.205376
0.207099
0.208795
0.210467
0.212115
0.21374
0.215342
0.216923
0.21848
0.220018
0.221528
0.223014
0.224476
0.225911
0.227324
0.228714
0.230074
0.231411
0.232717
0.233995
0.23524
0.236461
0.23765
0.238806
0.239932
0.241029
0.242089
0.24311
0.244087
0.245028
0.100726
0.102165
0.103589
0.105003
0.106409
0.10781
0.109209
0.110606
0.112001
0.113397
0.114794
0.116197
0.117602
0.119007
0.12041
0.121814
0.123219
0.124624
0.12603
0.127436
0.128841
0.130245
0.131654
0.133083
0.134512
0.135937
0.137361
0.138786
0.140212
0.141639
0.143067
0.144496
0.145926
0.147358
0.148789
0.150222
0.151654
0.153087
0.154522
0.155963
0.157411
0.158863
0.160316
0.161769
0.163223
0.164677
0.166133
0.167589
0.169046
0.170504
0.171963
0.173422
0.17488
0.176339
0.177796
0.179251
0.180703
0.182149
0.183586
0.185016
0.186558
0.188469
0.190472
0.19245
0.19439
0.196285
0.19815
0.199977
0.201778
0.203553
0.205302
0.207025
0.208722
0.210393
0.21204
0.213665
0.215267
0.216849
0.218407
0.219944
0.221454
0.222941
0.224404
0.225839
0.227252
0.228642
0.230002
0.231336
0.232642
0.233921
0.235169
0.236389
0.237575
0.238732
0.23986
0.240955
0.242013
0.243033
0.244015
0.244958
0.10071
0.102128
0.103538
0.104941
0.106341
0.107738
0.109134
0.110529
0.111923
0.113316
0.114706
0.116117
0.117534
0.11894
0.120343
0.121747
0.123152
0.124558
0.125964
0.127372
0.128779
0.130188
0.131601
0.133021
0.134445
0.135868
0.137292
0.138717
0.140143
0.14157
0.142998
0.144428
0.145858
0.14729
0.148722
0.150156
0.15159
0.153025
0.154463
0.155905
0.157351
0.158801
0.160252
0.161704
0.163158
0.164612
0.166068
0.167524
0.168982
0.17044
0.171899
0.173359
0.174819
0.176279
0.177739
0.179199
0.180657
0.182115
0.183573
0.18504
0.186542
0.188219
0.190218
0.192265
0.194257
0.196182
0.198057
0.199895
0.201701
0.20348
0.205229
0.206949
0.208646
0.210321
0.21197
0.213596
0.215198
0.216776
0.218335
0.219872
0.221384
0.222872
0.224333
0.225771
0.227182
0.22857
0.229932
0.231267
0.232571
0.233849
0.235094
0.236314
0.237504
0.238662
0.239788
0.240883
0.241942
0.242961
0.243946
0.244891
0.100708
0.102111
0.103507
0.104898
0.10629
0.107683
0.109076
0.11047
0.111864
0.113258
0.114654
0.116058
0.117465
0.118869
0.120273
0.121677
0.123083
0.124489
0.125896
0.127304
0.128714
0.130125
0.131539
0.132958
0.134379
0.135801
0.137225
0.13865
0.140076
0.141503
0.142932
0.144362
0.145793
0.147225
0.148658
0.150092
0.151528
0.152965
0.154404
0.155847
0.157292
0.158741
0.160191
0.161643
0.163096
0.16455
0.166006
0.167463
0.16892
0.170379
0.171839
0.1733
0.174761
0.176224
0.177687
0.179151
0.180616
0.182084
0.183557
0.18504
0.186542
0.188096
0.189976
0.192052
0.19409
0.196052
0.197959
0.199808
0.201621
0.2034
0.205149
0.206872
0.20857
0.210244
0.211896
0.213522
0.215126
0.216704
0.218262
0.219798
0.221309
0.222799
0.224262
0.225699
0.22711
0.228499
0.229859
0.231194
0.232499
0.233774
0.235021
0.236241
0.237435
0.238594
0.239719
0.240813
0.241868
0.242889
0.243871
0.244816
0.100697
0.102087
0.103473
0.104857
0.106242
0.107628
0.109017
0.110408
0.1118
0.113195
0.114592
0.115992
0.117396
0.1188
0.120204
0.121609
0.123014
0.124421
0.125829
0.127238
0.128649
0.130061
0.131476
0.132894
0.134314
0.135736
0.13716
0.138584
0.140011
0.141438
0.142867
0.144297
0.145728
0.147161
0.148595
0.15003
0.151466
0.152905
0.154345
0.155788
0.157234
0.158681
0.160131
0.161582
0.163035
0.16449
0.165945
0.167402
0.16886
0.17032
0.17178
0.173242
0.174705
0.17617
0.177636
0.179104
0.180576
0.182051
0.183533
0.185026
0.186533
0.188064
0.189752
0.191811
0.193905
0.195919
0.197852
0.199717
0.201531
0.203317
0.205073
0.206797
0.208496
0.210169
0.211819
0.213447
0.21505
0.216632
0.218188
0.219724
0.221237
0.222727
0.22419
0.225625
0.227035
0.228423
0.229783
0.231118
0.232422
0.233698
0.234949
0.236172
0.237364
0.238522
0.23965
0.240742
0.241799
0.242818
0.243796
0.244732
0.100696
0.102078
0.103451
0.104824
0.1062
0.107579
0.108962
0.110348
0.111738
0.113131
0.114527
0.115927
0.117328
0.118731
0.120135
0.12154
0.122947
0.124354
0.125762
0.127172
0.128584
0.129997
0.131412
0.13283
0.13425
0.135671
0.137095
0.138519
0.139946
0.141373
0.142802
0.144232
0.145664
0.147097
0.148532
0.149967
0.151405
0.152844
0.154285
0.155728
0.157174
0.158621
0.160071
0.161522
0.162974
0.164429
0.165884
0.167341
0.1688
0.17026
0.171721
0.173185
0.174649
0.176116
0.177585
0.179057
0.180532
0.182013
0.1835
0.184998
0.186509
0.18804
0.189634
0.191555
0.193721
0.195782
0.19774
0.199618
0.201442
0.203232
0.204992
0.206716
0.208417
0.21009
0.211742
0.21337
0.214975
0.216559
0.218116
0.219652
0.221162
0.222653
0.224116
0.225553
0.226964
0.22835
0.22971
0.231044
0.232349
0.233624
0.234873
0.236096
0.237289
0.238451
0.239579
0.240672
0.241726
0.242743
0.24372
0.244656
0.100697
0.10207
0.10343
0.104793
0.106159
0.10753
0.108907
0.110289
0.111676
0.113067
0.114462
0.115861
0.117261
0.118664
0.120068
0.121473
0.122879
0.124287
0.125696
0.127106
0.128518
0.129932
0.131348
0.132765
0.134185
0.135606
0.137029
0.138454
0.13988
0.141308
0.142737
0.144168
0.1456
0.147033
0.148468
0.149904
0.151342
0.152782
0.154224
0.155667
0.157113
0.15856
0.160009
0.16146
0.162913
0.164367
0.165823
0.16728
0.168739
0.170199
0.171662
0.173126
0.174592
0.17606
0.177531
0.179006
0.180485
0.181968
0.183459
0.184957
0.186464
0.187978
0.189526
0.191433
0.193578
0.195643
0.197621
0.199511
0.20135
0.203147
0.204907
0.206635
0.208335
0.210012
0.211663
0.213295
0.214899
0.216484
0.218042
0.219576
0.221088
0.222575
0.224038
0.225478
0.22689
0.228277
0.229636
0.230968
0.232273
0.233549
0.234796
0.23602
0.237215
0.238377
0.239505
0.240596
0.24165
0.242668
0.243647
0.244587
0.100684
0.102042
0.103396
0.104752
0.106112
0.107477
0.108849
0.110228
0.111613
0.113003
0.114397
0.115794
0.117194
0.118597
0.120001
0.121406
0.122812
0.12422
0.12563
0.12704
0.128453
0.129867
0.131282
0.1327
0.13412
0.135541
0.136964
0.138388
0.139815
0.141242
0.142672
0.144103
0.145535
0.146969
0.148404
0.149841
0.151279
0.152719
0.154161
0.155605
0.15705
0.158498
0.159947
0.161398
0.16285
0.164304
0.16576
0.167218
0.168677
0.170138
0.1716
0.173065
0.174532
0.176002
0.177475
0.178951
0.180432
0.181918
0.18341
0.184908
0.186412
0.187916
0.189443
0.191318
0.193441
0.195512
0.197503
0.199407
0.201258
0.203061
0.204822
0.206551
0.208254
0.209934
0.211586
0.213217
0.214825
0.216408
0.217967
0.219499
0.221013
0.2225
0.223965
0.225401
0.226812
0.2282
0.229558
0.230889
0.232193
0.23347
0.234719
0.235945
0.237139
0.2383
0.23943
0.240521
0.241575
0.242591
0.243571
0.244511
0.100671
0.102017
0.103362
0.104711
0.106064
0.107424
0.108792
0.110168
0.111551
0.11294
0.114334
0.115731
0.117132
0.118534
0.119938
0.121343
0.12275
0.124158
0.125567
0.126978
0.128391
0.129805
0.13122
0.132638
0.134057
0.135479
0.136902
0.138326
0.139752
0.14118
0.142609
0.14404
0.145473
0.146907
0.148342
0.149779
0.151218
0.152658
0.1541
0.155544
0.15699
0.158437
0.159886
0.161337
0.16279
0.164244
0.165699
0.167157
0.168616
0.170077
0.17154
0.173006
0.174473
0.175944
0.177418
0.178895
0.180377
0.181864
0.183357
0.184857
0.186363
0.187877
0.189408
0.191159
0.193283
0.195391
0.197388
0.199312
0.201167
0.202975
0.204738
0.206474
0.208179
0.209858
0.211511
0.213141
0.214749
0.216332
0.217891
0.219425
0.220938
0.222426
0.223891
0.225326
0.226738
0.228123
0.229481
0.230813
0.232117
0.233396
0.234643
0.235867
0.237061
0.238225
0.239355
0.240448
0.241503
0.242517
0.2435
0.244439
0.100666
0.102005
0.103346
0.104688
0.106036
0.107391
0.108755
0.110129
0.11151
0.112899
0.114293
0.11569
0.117091
0.118493
0.119897
0.121302
0.122709
0.124117
0.125527
0.126938
0.12835
0.129763
0.131179
0.132596
0.134016
0.135437
0.136859
0.138284
0.13971
0.141137
0.142567
0.143997
0.14543
0.146863
0.148299
0.149736
0.151175
0.152615
0.154057
0.155501
0.156946
0.158394
0.159843
0.161293
0.162745
0.164199
0.165655
0.167112
0.168571
0.170032
0.171495
0.172961
0.174429
0.1759
0.177374
0.178852
0.180334
0.181821
0.183315
0.184815
0.186324
0.187845
0.189388
0.19108
0.193152
0.195292
0.197303
0.199232
0.201093
0.202904
0.204671
0.206408
0.208113
0.209794
0.211449
0.213081
0.214689
0.216269
0.217828
0.219363
0.220876
0.222362
0.223827
0.225263
0.226672
0.228057
0.229416
0.230747
0.232053
0.233331
0.234576
0.235797
0.236992
0.238156
0.239282
0.240378
0.241434
0.242445
0.243425
0.244365
0.100755
0.102217
0.103652
0.105072
0.106481
0.107885
0.109285
0.110683
0.11208
0.113477
0.114875
0.116277
0.117681
0.119085
0.120489
0.121893
0.123298
0.124703
0.126108
0.127514
0.128921
0.130328
0.131739
0.13316
0.134583
0.136006
0.13743
0.138855
0.140281
0.141707
0.143135
0.144564
0.145994
0.147424
0.148856
0.150287
0.151718
0.153147
0.154575
0.156014
0.157471
0.158928
0.160383
0.161837
0.163291
0.164745
0.166201
0.167657
0.169114
0.170572
0.17203
0.173488
0.174946
0.176404
0.177859
0.179312
0.180759
0.182196
0.183615
0.185019
0.186666
0.188644
0.190644
0.192583
0.194496
0.196383
0.198234
0.20006
0.201857
0.203629
0.205376
0.207099
0.208795
0.210467
0.212115
0.21374
0.215342
0.216923
0.21848
0.220018
0.221528
0.223014
0.224476
0.225911
0.227324
0.228714
0.230074
0.231411
0.232717
0.233995
0.23524
0.236461
0.23765
0.238806
0.239932
0.241029
0.242089
0.24311
0.244087
0.245028
0.100726
0.102165
0.103589
0.105003
0.106409
0.10781
0.109209
0.110606
0.112001
0.113397
0.114794
0.116197
0.117602
0.119007
0.12041
0.121814
0.123219
0.124624
0.12603
0.127436
0.128841
0.130245
0.131654
0.133083
0.134512
0.135937
0.137361
0.138786
0.140212
0.141639
0.143067
0.144496
0.145926
0.147358
0.148789
0.150222
0.151654
0.153087
0.154522
0.155963
0.157411
0.158863
0.160316
0.161769
0.163223
0.164677
0.166133
0.167589
0.169046
0.170504
0.171963
0.173422
0.17488
0.176339
0.177796
0.179251
0.180703
0.182149
0.183586
0.185016
0.186558
0.188469
0.190472
0.19245
0.19439
0.196285
0.19815
0.199977
0.201778
0.203553
0.205302
0.207025
0.208722
0.210393
0.21204
0.213665
0.215267
0.216849
0.218407
0.219944
0.221454
0.222941
0.224404
0.225839
0.227252
0.228642
0.230002
0.231336
0.232642
0.233921
0.235169
0.236389
0.237575
0.238732
0.23986
0.240955
0.242013
0.243033
0.244015
0.244958
0.10071
0.102128
0.103538
0.104941
0.106341
0.107738
0.109134
0.110529
0.111923
0.113316
0.114706
0.116117
0.117534
0.11894
0.120343
0.121747
0.123152
0.124558
0.125964
0.127372
0.128779
0.130188
0.131601
0.133021
0.134445
0.135868
0.137292
0.138717
0.140143
0.14157
0.142998
0.144428
0.145858
0.14729
0.148722
0.150156
0.15159
0.153025
0.154463
0.155905
0.157351
0.158801
0.160252
0.161704
0.163158
0.164612
0.166068
0.167524
0.168982
0.17044
0.171899
0.173359
0.174819
0.176279
0.177739
0.179199
0.180657
0.182115
0.183573
0.18504
0.186542
0.188219
0.190218
0.192265
0.194257
0.196182
0.198057
0.199895
0.201701
0.20348
0.205229
0.206949
0.208646
0.210321
0.21197
0.213596
0.215198
0.216776
0.218335
0.219872
0.221384
0.222872
0.224333
0.225771
0.227182
0.22857
0.229932
0.231267
0.232571
0.233849
0.235094
0.236314
0.237504
0.238662
0.239788
0.240883
0.241942
0.242961
0.243946
0.244891
0.100708
0.102111
0.103507
0.104898
0.10629
0.107683
0.109076
0.11047
0.111864
0.113258
0.114654
0.116058
0.117465
0.118869
0.120273
0.121677
0.123083
0.124489
0.125896
0.127304
0.128714
0.130125
0.131539
0.132958
0.134379
0.135801
0.137225
0.13865
0.140076
0.141503
0.142932
0.144362
0.145793
0.147225
0.148658
0.150092
0.151528
0.152965
0.154404
0.155847
0.157292
0.158741
0.160191
0.161643
0.163096
0.16455
0.166006
0.167463
0.16892
0.170379
0.171839
0.1733
0.174761
0.176224
0.177687
0.179151
0.180616
0.182084
0.183557
0.18504
0.186542
0.188096
0.189976
0.192052
0.19409
0.196052
0.197959
0.199808
0.201621
0.2034
0.205149
0.206872
0.20857
0.210244
0.211896
0.213522
0.215126
0.216704
0.218262
0.219798
0.221309
0.222799
0.224262
0.225699
0.22711
0.228499
0.229859
0.231194
0.232499
0.233774
0.235021
0.236241
0.237435
0.238594
0.239719
0.240813
0.241868
0.242889
0.243871
0.244816
0.100697
0.102087
0.103473
0.104857
0.106242
0.107628
0.109017
0.110408
0.1118
0.113195
0.114592
0.115992
0.117396
0.1188
0.120204
0.121609
0.123014
0.124421
0.125829
0.127238
0.128649
0.130061
0.131476
0.132894
0.134314
0.135736
0.13716
0.138584
0.140011
0.141438
0.142867
0.144297
0.145728
0.147161
0.148595
0.15003
0.151466
0.152905
0.154345
0.155788
0.157234
0.158681
0.160131
0.161582
0.163035
0.16449
0.165945
0.167402
0.16886
0.17032
0.17178
0.173242
0.174705
0.17617
0.177636
0.179104
0.180576
0.182051
0.183533
0.185026
0.186533
0.188064
0.189752
0.191811
0.193905
0.195919
0.197852
0.199717
0.201531
0.203317
0.205073
0.206797
0.208496
0.210169
0.211819
0.213447
0.21505
0.216632
0.218188
0.219724
0.221237
0.222727
0.22419
0.225625
0.227035
0.228423
0.229783
0.231118
0.232422
0.233698
0.234949
0.236172
0.237364
0.238522
0.23965
0.240742
0.241799
0.242818
0.243796
0.244732
0.100696
0.102078
0.103451
0.104824
0.1062
0.107579
0.108962
0.110348
0.111738
0.113131
0.114527
0.115927
0.117328
0.118731
0.120135
0.12154
0.122947
0.124354
0.125762
0.127172
0.128584
0.129997
0.131412
0.13283
0.13425
0.135671
0.137095
0.138519
0.139946
0.141373
0.142802
0.144232
0.145664
0.147097
0.148532
0.149967
0.151405
0.152844
0.154285
0.155728
0.157174
0.158621
0.160071
0.161522
0.162974
0.164429
0.165884
0.167341
0.1688
0.17026
0.171721
0.173185
0.174649
0.176116
0.177585
0.179057
0.180532
0.182013
0.1835
0.184998
0.186509
0.18804
0.189634
0.191555
0.193721
0.195782
0.19774
0.199618
0.201442
0.203232
0.204992
0.206716
0.208417
0.21009
0.211742
0.21337
0.214975
0.216559
0.218116
0.219652
0.221162
0.222653
0.224116
0.225553
0.226964
0.22835
0.22971
0.231044
0.232349
0.233624
0.234873
0.236096
0.237289
0.238451
0.239579
0.240672
0.241726
0.242743
0.24372
0.244656
0.100697
0.10207
0.10343
0.104793
0.106159
0.10753
0.108907
0.110289
0.111676
0.113067
0.114462
0.115861
0.117261
0.118664
0.120068
0.121473
0.122879
0.124287
0.125696
0.127106
0.128518
0.129932
0.131348
0.132765
0.134185
0.135606
0.137029
0.138454
0.13988
0.141308
0.142737
0.144168
0.1456
0.147033
0.148468
0.149904
0.151342
0.152782
0.154224
0.155667
0.157113
0.15856
0.160009
0.16146
0.162913
0.164367
0.165823
0.16728
0.168739
0.170199
0.171662
0.173126
0.174592
0.17606
0.177531
0.179006
0.180485
0.181968
0.183459
0.184957
0.186464
0.187978
0.189526
0.191433
0.193578
0.195643
0.197621
0.199511
0.20135
0.203147
0.204907
0.206635
0.208335
0.210012
0.211663
0.213295
0.214899
0.216484
0.218042
0.219576
0.221088
0.222575
0.224038
0.225478
0.22689
0.228277
0.229636
0.230968
0.232273
0.233549
0.234796
0.23602
0.237215
0.238377
0.239505
0.240596
0.24165
0.242668
0.243647
0.244587
0.100684
0.102042
0.103396
0.104752
0.106112
0.107477
0.108849
0.110228
0.111613
0.113003
0.114397
0.115794
0.117194
0.118597
0.120001
0.121406
0.122812
0.12422
0.12563
0.12704
0.128453
0.129867
0.131282
0.1327
0.13412
0.135541
0.136964
0.138388
0.139815
0.141242
0.142672
0.144103
0.145535
0.146969
0.148404
0.149841
0.151279
0.152719
0.154161
0.155605
0.15705
0.158498
0.159947
0.161398
0.16285
0.164304
0.16576
0.167218
0.168677
0.170138
0.1716
0.173065
0.174532
0.176002
0.177475
0.178951
0.180432
0.181918
0.18341
0.184908
0.186412
0.187916
0.189443
0.191318
0.193441
0.195512
0.197503
0.199407
0.201258
0.203061
0.204822
0.206551
0.208254
0.209934
0.211586
0.213217
0.214825
0.216408
0.217967
0.219499
0.221013
0.2225
0.223965
0.225401
0.226812
0.2282
0.229558
0.230889
0.232193
0.23347
0.234719
0.235945
0.237139
0.2383
0.23943
0.240521
0.241575
0.242591
0.243571
0.244511
0.100671
0.102017
0.103362
0.104711
0.106064
0.107424
0.108792
0.110168
0.111551
0.11294
0.114334
0.115731
0.117132
0.118534
0.119938
0.121343
0.12275
0.124158
0.125567
0.126978
0.128391
0.129805
0.13122
0.132638
0.134057
0.135479
0.136902
0.138326
0.139752
0.14118
0.142609
0.14404
0.145473
0.146907
0.148342
0.149779
0.151218
0.152658
0.1541
0.155544
0.15699
0.158437
0.159886
0.161337
0.16279
0.164244
0.165699
0.167157
0.168616
0.170077
0.17154
0.173006
0.174473
0.175944
0.177418
0.178895
0.180377
0.181864
0.183357
0.184857
0.186363
0.187877
0.189408
0.191159
0.193283
0.195391
0.197388
0.199312
0.201167
0.202975
0.204738
0.206474
0.208179
0.209858
0.211511
0.213141
0.214749
0.216332
0.217891
0.219425
0.220938
0.222426
0.223891
0.225326
0.226738
0.228123
0.229481
0.230813
0.232117
0.233396
0.234643
0.235867
0.237061
0.238225
0.239355
0.240448
0.241503
0.242517
0.2435
0.244439
0.100666
0.102005
0.103346
0.104688
0.106036
0.107391
0.108755
0.110129
0.11151
0.112899
0.114293
0.11569
0.117091
0.118493
0.119897
0.121302
0.122709
0.124117
0.125527
0.126938
0.12835
0.129763
0.131179
0.132596
0.134016
0.135437
0.136859
0.138284
0.13971
0.141137
0.142567
0.143997
0.14543
0.146863
0.148299
0.149736
0.151175
0.152615
0.154057
0.155501
0.156946
0.158394
0.159843
0.161293
0.162745
0.164199
0.165655
0.167112
0.168571
0.170032
0.171495
0.172961
0.174429
0.1759
0.177374
0.178852
0.180334
0.181821
0.183315
0.184815
0.186324
0.187845
0.189388
0.19108
0.193152
0.195292
0.197303
0.199232
0.201093
0.202904
0.204671
0.206408
0.208113
0.209794
0.211449
0.213081
0.214689
0.216269
0.217828
0.219363
0.220876
0.222362
0.223827
0.225263
0.226672
0.228057
0.229416
0.230747
0.232053
0.233331
0.234576
0.235797
0.236992
0.238156
0.239282
0.240378
0.241434
0.242445
0.243425
0.244365
0.100755
0.102217
0.103652
0.105072
0.106481
0.107885
0.109285
0.110683
0.11208
0.113477
0.114875
0.116277
0.117681
0.119085
0.120489
0.121893
0.123298
0.124703
0.126108
0.127514
0.128921
0.130328
0.131739
0.13316
0.134583
0.136006
0.13743
0.138855
0.140281
0.141707
0.143135
0.144564
0.145994
0.147424
0.148856
0.150287
0.151718
0.153147
0.154575
0.156014
0.157471
0.158928
0.160383
0.161837
0.163291
0.164745
0.166201
0.167657
0.169114
0.170572
0.17203
0.173488
0.174946
0.176404
0.177859
0.179312
0.180759
0.182196
0.183615
0.185019
0.186666
0.188644
0.190644
0.192583
0.194496
0.196383
0.198234
0.20006
0.201857
0.203629
0.205376
0.207099
0.208795
0.210467
0.212115
0.21374
0.215342
0.216923
0.21848
0.220018
0.221528
0.223014
0.224476
0.225911
0.227324
0.228714
0.230074
0.231411
0.232717
0.233995
0.23524
0.236461
0.23765
0.238806
0.239932
0.241029
0.242089
0.24311
0.244087
0.245028
0.100666
0.102005
0.103346
0.104688
0.106036
0.107391
0.108755
0.110129
0.11151
0.112899
0.114293
0.11569
0.117091
0.118493
0.119897
0.121302
0.122709
0.124117
0.125527
0.126938
0.12835
0.129763
0.131179
0.132596
0.134016
0.135437
0.136859
0.138284
0.13971
0.141137
0.142567
0.143997
0.14543
0.146863
0.148299
0.149736
0.151175
0.152615
0.154057
0.155501
0.156946
0.158394
0.159843
0.161293
0.162745
0.164199
0.165655
0.167112
0.168571
0.170032
0.171495
0.172961
0.174429
0.1759
0.177374
0.178852
0.180334
0.181821
0.183315
0.184815
0.186324
0.187845
0.189388
0.19108
0.193152
0.195292
0.197303
0.199232
0.201093
0.202904
0.204671
0.206408
0.208113
0.209794
0.211449
0.213081
0.214689
0.216269
0.217828
0.219363
0.220876
0.222362
0.223827
0.225263
0.226672
0.228057
0.229416
0.230747
0.232053
0.233331
0.234576
0.235797
0.236992
0.238156
0.239282
0.240378
0.241434
0.242445
0.243425
0.244365
)
;
    }
}


// ************************************************************************* //
