/*--------------------------------*- C++ -*----------------------------------*\
| =========                 |                                                 |
| \\      /  F ield         | foam-extend: Open Source CFD                    |
|  \\    /   O peration     | Version:     5.0                                |
|   \\  /    A nd           | Web:         http://www.foam-extend.org         |
|    \\/     M anipulation  |                                                 |
\*---------------------------------------------------------------------------*/
FoamFile
{
    version     2.0;
    format      ascii;
    class       surfaceScalarField;
    location    "8000";
    object      phi;
}
// * * * * * * * * * * * * * * * * * * * * * * * * * * * * * * * * * * * * * //

dimensions      [0 3 -1 0 0 0 0];

internalField   nonuniform List<scalar> 
1890
(
-7.30816e-06
-2.46066e-07
-7.1756e-06
-1.32561e-07
-7.0969e-06
-7.87001e-08
-7.04854e-06
-4.83552e-08
-7.01867e-06
-2.98711e-08
-7.0004e-06
-1.82707e-08
-6.98975e-06
-1.06526e-08
-6.98463e-06
-5.1186e-09
-6.98483e-06
1.9749e-10
-6.99245e-06
7.62213e-09
-7.00905e-06
1.65963e-08
-7.01905e-06
9.99961e-09
-7.02006e-06
1.00963e-09
-7.01948e-06
-5.78135e-10
-7.02061e-06
1.13325e-09
-7.02317e-06
2.56235e-09
-7.02577e-06
2.59273e-09
-7.02819e-06
2.42646e-09
-7.0298e-06
1.61135e-09
-7.03125e-06
1.45018e-09
-7.03535e-06
4.09588e-09
-7.05828e-06
2.29356e-08
-7.1007e-06
4.24197e-08
-7.11605e-06
1.535e-08
-7.11689e-06
8.34692e-10
-7.11799e-06
1.10435e-09
-7.12118e-06
3.18431e-09
-7.12535e-06
4.17487e-09
-7.1294e-06
4.04404e-09
-7.13387e-06
4.47387e-09
-7.13841e-06
4.53678e-09
-7.14214e-06
3.72957e-09
-7.14516e-06
3.02045e-09
-7.1471e-06
1.94439e-09
-7.14791e-06
8.13727e-10
-7.14507e-06
-2.84042e-09
-7.13496e-06
-1.01136e-08
-7.10769e-06
-2.72673e-08
-7.04654e-06
-6.11527e-08
-6.97488e-06
-7.16592e-08
-6.93863e-06
-3.62478e-08
-6.92739e-06
-1.12418e-08
-6.92634e-06
-1.05231e-09
-6.92948e-06
3.14383e-09
-6.93445e-06
4.96558e-09
-6.94045e-06
6.00271e-09
-6.94698e-06
6.53153e-09
-6.9538e-06
6.81281e-09
-6.9606e-06
6.80688e-09
-6.96715e-06
6.54247e-09
-6.97292e-06
5.77695e-09
-6.9774e-06
4.47887e-09
-6.97954e-06
2.13437e-09
-6.97826e-06
-1.27356e-09
-6.97069e-06
-7.57328e-09
-6.95194e-06
-1.87508e-08
-6.91237e-06
-3.95702e-08
-6.83158e-06
-8.07888e-08
-6.6607e-06
-1.70879e-07
-6.36945e-06
-2.91254e-07
-6.50488e-06
1.35438e-07
-6.84768e-06
3.42793e-07
-7.19342e-06
3.45741e-07
-7.42152e-06
2.28099e-07
-7.55469e-06
1.33176e-07
-7.65717e-06
1.02475e-07
-7.71039e-06
5.32272e-08
-7.75624e-06
4.58486e-08
-7.78724e-06
3.0993e-08
-7.80937e-06
2.2137e-08
-7.82501e-06
1.56424e-08
-7.8446e-06
1.95906e-08
-7.85694e-06
1.23327e-08
-7.87445e-06
1.7513e-08
-7.8978e-06
2.33477e-08
-7.9254e-06
2.76056e-08
-7.95429e-06
2.88856e-08
-7.98185e-06
2.75637e-08
-8.01002e-06
2.81662e-08
-8.03908e-06
2.90662e-08
-8.07502e-06
3.59342e-08
-8.11052e-06
3.54968e-08
-8.14163e-06
3.1117e-08
-8.17783e-06
3.6194e-08
-8.22108e-06
4.32552e-08
-8.26603e-06
4.49451e-08
-8.31493e-06
4.89091e-08
-8.38465e-06
6.97168e-08
-8.46617e-06
8.15192e-08
-8.54589e-06
7.97193e-08
-8.61723e-06
7.13382e-08
-8.69996e-06
8.273e-08
-8.81128e-06
1.11319e-07
-8.93143e-06
1.20158e-07
-9.05524e-06
1.23805e-07
-9.19842e-06
1.43184e-07
-9.37649e-06
1.78068e-07
-9.59143e-06
2.14942e-07
-9.796e-06
2.04573e-07
2.03996e-07
-7.19465e-06
-3.12967e-07
-7.12174e-06
-2.05477e-07
-7.06655e-06
-1.33884e-07
-7.03006e-06
-8.48496e-08
-7.00707e-06
-5.28586e-08
-6.99278e-06
-3.25589e-08
-6.98421e-06
-1.92211e-08
-6.97931e-06
-1.00194e-08
-6.9774e-06
-1.7138e-09
-6.98347e-06
1.36945e-08
-7.01562e-06
4.87415e-08
-7.02778e-06
2.21569e-08
-7.02076e-06
-6.0045e-09
-7.01607e-06
-5.2752e-09
-7.01729e-06
2.35991e-09
-7.01927e-06
4.53991e-09
-7.02199e-06
5.31457e-09
-7.02394e-06
4.37747e-09
-7.02453e-06
2.20145e-09
-7.0208e-06
-2.27969e-09
-7.00615e-06
-1.05573e-08
-6.9475e-06
-3.57122e-08
-6.8481e-06
-5.69851e-08
-6.81131e-06
-2.14355e-08
-6.81817e-06
7.6934e-09
-6.83459e-06
1.7524e-08
-6.852e-06
2.05945e-08
-6.86974e-06
2.19158e-08
-6.88875e-06
2.3054e-08
-6.90837e-06
2.40957e-08
-6.92895e-06
2.51104e-08
-6.9507e-06
2.54796e-08
-6.97339e-06
2.57138e-08
-6.99686e-06
2.54148e-08
-7.02041e-06
2.43663e-08
-7.04453e-06
2.12773e-08
-7.06976e-06
1.51197e-08
-7.10145e-06
4.42057e-09
-7.15304e-06
-9.56762e-09
-7.21129e-06
-1.34067e-08
-7.24665e-06
-8.89132e-10
-7.27034e-06
1.24504e-08
-7.29217e-06
2.07831e-08
-7.31543e-06
2.64039e-08
-7.34018e-06
2.97149e-08
-7.36587e-06
3.16929e-08
-7.39263e-06
3.32838e-08
-7.42022e-06
3.4404e-08
-7.44809e-06
3.4677e-08
-7.4755e-06
3.39585e-08
-7.50206e-06
3.23336e-08
-7.5272e-06
2.96227e-08
-7.55048e-06
2.54085e-08
-7.56965e-06
1.79024e-08
-7.58307e-06
5.84056e-09
-7.58736e-06
-1.44622e-08
-7.57797e-06
-4.89596e-08
-7.54942e-06
-1.09332e-07
-7.50041e-06
-2.19889e-07
-7.36269e-06
-4.28972e-07
-7.01318e-06
-2.14073e-07
-7.33044e-06
6.60054e-07
-7.69242e-06
7.0772e-07
-7.95461e-06
4.90285e-07
-8.12587e-06
3.04433e-07
-8.21089e-06
1.87497e-07
-8.30099e-06
1.4333e-07
-8.35498e-06
9.98407e-08
-8.40305e-06
7.90652e-08
-8.44536e-06
6.44475e-08
-8.49572e-06
6.5995e-08
-8.55489e-06
7.87686e-08
-8.6289e-06
8.63421e-08
-8.68488e-06
7.3485e-08
-8.72917e-06
6.76444e-08
-8.76434e-06
6.27722e-08
-8.80146e-06
6.60099e-08
-8.86019e-06
8.62883e-08
-8.91747e-06
8.54511e-08
-8.98222e-06
9.38179e-08
-9.02981e-06
8.35171e-08
-9.07884e-06
8.45306e-08
-9.14864e-06
1.00919e-07
-9.2e-06
8.75563e-08
-9.25313e-06
9.63783e-08
-9.32672e-06
1.18539e-07
-9.39184e-06
1.14031e-07
-9.43666e-06
1.14535e-07
-9.47971e-06
1.24567e-07
-9.54389e-06
1.43904e-07
-9.6482e-06
1.75648e-07
-9.75145e-06
1.85979e-07
-9.80648e-06
1.66355e-07
-9.84857e-06
1.62248e-07
-9.90801e-06
1.83243e-07
-9.96891e-06
2.0408e-07
-9.99533e-06
2.04493e-07
-1.00092e-05
2.2884e-07
-1.0012e-05
2.07371e-07
1.91971e-07
-7.08634e-06
-3.29009e-07
-7.04816e-06
-2.4366e-07
-7.01459e-06
-1.67453e-07
-6.99512e-06
-1.04316e-07
-6.98267e-06
-6.53102e-08
-6.97444e-06
-4.0787e-08
-6.96801e-06
-2.56528e-08
-6.96078e-06
-1.72461e-08
-6.94745e-06
-1.5043e-08
-6.91037e-06
-2.3387e-08
-6.80882e-06
-5.28107e-08
-6.76653e-06
-2.01329e-08
-6.79842e-06
2.58839e-08
-6.84253e-06
3.88346e-08
-6.88014e-06
3.99722e-08
-6.91656e-06
4.09599e-08
-6.95294e-06
4.16893e-08
-6.99071e-06
4.21533e-08
-7.03031e-06
4.18014e-08
-7.07228e-06
3.96913e-08
-7.11694e-06
3.41039e-08
-7.17715e-06
2.44967e-08
-7.2536e-06
1.94655e-08
-7.30763e-06
3.25913e-08
-7.34622e-06
4.62831e-08
-7.38196e-06
5.32683e-08
-7.41785e-06
5.64772e-08
-7.45446e-06
5.85266e-08
-7.49168e-06
6.02771e-08
-7.52919e-06
6.16026e-08
-7.56657e-06
6.24902e-08
-7.60398e-06
6.28906e-08
-7.64125e-06
6.29884e-08
-7.67791e-06
6.20706e-08
-7.71382e-06
6.02763e-08
-7.74948e-06
5.69433e-08
-7.78576e-06
5.13976e-08
-7.82492e-06
4.35829e-08
-7.87041e-06
3.59146e-08
-7.91825e-06
3.44396e-08
-7.95913e-06
3.99839e-08
-7.99393e-06
4.72535e-08
-8.02744e-06
5.42919e-08
-8.05988e-06
5.88481e-08
-8.0923e-06
6.21331e-08
-8.12561e-06
6.50017e-08
-8.15864e-06
6.63166e-08
-8.19115e-06
6.69167e-08
-8.22312e-06
6.66406e-08
-8.25473e-06
6.55754e-08
-8.285e-06
6.25983e-08
-8.31372e-06
5.83457e-08
-8.3392e-06
5.08914e-08
-8.36084e-06
3.95339e-08
-8.37733e-06
2.23376e-08
-8.38827e-06
-3.5289e-09
-8.3957e-06
-4.15253e-08
-8.40534e-06
-9.969e-08
-8.44344e-06
-1.81793e-07
-8.59505e-06
-2.77358e-07
-8.537e-06
-2.72124e-07
-8.23251e-06
3.55567e-07
-8.30504e-06
7.80249e-07
-8.46472e-06
6.49967e-07
-8.63652e-06
4.76225e-07
-8.7857e-06
3.36683e-07
-8.84859e-06
2.06219e-07
-8.9076e-06
1.5885e-07
-8.95827e-06
1.29732e-07
-9.01909e-06
1.25267e-07
-9.08423e-06
1.31141e-07
-9.12835e-06
1.22892e-07
-9.15814e-06
1.16128e-07
-9.21259e-06
1.27936e-07
-9.26026e-06
1.15314e-07
-9.31605e-06
1.18559e-07
-9.36175e-06
1.11713e-07
-9.38803e-06
1.1257e-07
-9.42732e-06
1.2474e-07
-9.46859e-06
1.35084e-07
-9.52645e-06
1.41377e-07
-9.57659e-06
1.34678e-07
-9.60329e-06
1.27614e-07
-9.65609e-06
1.40362e-07
-9.70577e-06
1.46055e-07
-9.73289e-06
1.45658e-07
-9.77613e-06
1.57272e-07
-9.82438e-06
1.6279e-07
-9.87037e-06
1.70557e-07
-9.91643e-06
1.89963e-07
-9.92681e-06
1.86032e-07
-9.92597e-06
1.85138e-07
-9.92105e-06
1.61436e-07
-9.91657e-06
1.57767e-07
-9.90275e-06
1.6942e-07
-9.87798e-06
1.7931e-07
-9.89722e-06
2.23736e-07
-9.88416e-06
2.15779e-07
-9.92466e-06
2.47867e-07
2.67315e-07
-6.90604e-06
-2.35292e-07
-6.97568e-06
-1.74023e-07
-7.02166e-06
-1.21475e-07
-7.04404e-06
-8.19276e-08
-7.06444e-06
-4.49155e-08
-7.09096e-06
-1.42614e-08
-7.12581e-06
9.1963e-09
-7.1696e-06
2.65379e-08
-7.22219e-06
3.75514e-08
-7.28609e-06
4.05108e-08
-7.37801e-06
3.91086e-08
-7.45459e-06
5.64451e-08
-7.5069e-06
7.81925e-08
-7.5552e-06
8.71394e-08
-7.60373e-06
8.84987e-08
-7.65142e-06
8.86533e-08
-7.69859e-06
8.88574e-08
-7.74488e-06
8.84439e-08
-7.79037e-06
8.72916e-08
-7.83543e-06
8.4747e-08
-7.88187e-06
8.05473e-08
-7.93263e-06
7.52587e-08
-7.98639e-06
7.32261e-08
-8.0322e-06
7.84003e-08
-8.07149e-06
8.55715e-08
-8.10911e-06
9.08926e-08
-8.14698e-06
9.43469e-08
-8.18496e-06
9.64994e-08
-8.22242e-06
9.77458e-08
-8.25949e-06
9.86737e-08
-8.29643e-06
9.94254e-08
-8.33285e-06
9.93137e-08
-8.36848e-06
9.86108e-08
-8.40377e-06
9.73661e-08
-8.43857e-06
9.50772e-08
-8.47297e-06
9.13449e-08
-8.50813e-06
8.65502e-08
-8.54581e-06
8.12626e-08
-8.58653e-06
7.66427e-08
-8.62723e-06
7.51409e-08
-8.66486e-06
7.76063e-08
-8.69987e-06
8.22671e-08
-8.7322e-06
8.66219e-08
-8.76346e-06
9.0109e-08
-8.79446e-06
9.31358e-08
-8.82437e-06
9.49067e-08
-8.8541e-06
9.60522e-08
-8.88312e-06
9.59366e-08
-8.91113e-06
9.46421e-08
-8.93768e-06
9.21331e-08
-8.96384e-06
8.87586e-08
-8.98787e-06
8.237e-08
-9.01049e-06
7.35179e-08
-9.03114e-06
6.01817e-08
-9.05078e-06
4.19795e-08
-9.07119e-06
1.68812e-08
-9.09396e-06
-1.87588e-08
-9.12844e-06
-6.52136e-08
-9.18791e-06
-1.22319e-07
-9.28446e-06
-1.80811e-07
-9.33645e-06
-2.20129e-07
-8.90145e-06
-7.94296e-08
-8.93728e-06
8.16074e-07
-9.11826e-06
8.30948e-07
-9.24784e-06
6.05809e-07
-9.30171e-06
3.90548e-07
-9.3726e-06
2.77111e-07
-9.41788e-06
2.04135e-07
-9.48656e-06
1.98403e-07
-9.53262e-06
1.71327e-07
-9.5406e-06
1.39121e-07
-9.55162e-06
1.33912e-07
-9.56855e-06
1.3306e-07
-9.57859e-06
1.37981e-07
-9.61402e-06
1.50737e-07
-9.63731e-06
1.41859e-07
-9.6774e-06
1.51795e-07
-9.69474e-06
1.29916e-07
-9.71268e-06
1.42676e-07
-9.72493e-06
1.47338e-07
-9.7235e-06
1.39945e-07
-9.73002e-06
1.41196e-07
-9.7451e-06
1.42695e-07
-9.7629e-06
1.58163e-07
-9.78482e-06
1.67975e-07
-9.81814e-06
1.78976e-07
-9.85022e-06
1.8935e-07
-9.87835e-06
1.90921e-07
-9.9136e-06
2.0581e-07
-9.93164e-06
2.08005e-07
-9.92431e-06
1.78703e-07
-9.9025e-06
1.63328e-07
-9.92214e-06
1.8107e-07
-9.9508e-06
1.86428e-07
-9.9557e-06
1.74323e-07
-9.97333e-06
1.96941e-07
-9.93469e-06
1.85093e-07
-9.92142e-06
2.02514e-07
-9.92592e-06
2.52365e-07
3.41396e-07
-7.98882e-06
-2.77318e-07
-7.94046e-06
-2.22383e-07
-7.90831e-06
-1.53616e-07
-7.89904e-06
-9.12043e-08
-7.90585e-06
-3.81035e-08
-7.92571e-06
5.59857e-09
-7.95619e-06
3.9674e-08
-7.99227e-06
6.2619e-08
-8.03376e-06
7.90405e-08
-8.08201e-06
8.87612e-08
-8.13775e-06
9.48512e-08
-8.18674e-06
1.05435e-07
-8.22603e-06
1.17484e-07
-8.26303e-06
1.2414e-07
-8.30111e-06
1.2658e-07
-8.33935e-06
1.26889e-07
-8.37688e-06
1.26385e-07
-8.41372e-06
1.25286e-07
-8.44999e-06
1.23567e-07
-8.48631e-06
1.21063e-07
-8.52363e-06
1.1787e-07
-8.56308e-06
1.14709e-07
-8.60337e-06
1.13515e-07
-8.64051e-06
1.15542e-07
-8.67443e-06
1.19488e-07
-8.70637e-06
1.22832e-07
-8.73745e-06
1.25425e-07
-8.76801e-06
1.27068e-07
-8.79835e-06
1.28085e-07
-8.82822e-06
1.2854e-07
-8.85721e-06
1.28418e-07
-8.88591e-06
1.28009e-07
-8.91405e-06
1.26757e-07
-8.94162e-06
1.2493e-07
-8.9689e-06
1.22365e-07
-8.99679e-06
1.19231e-07
-9.02554e-06
1.15299e-07
-9.05551e-06
1.11229e-07
-9.08691e-06
1.08049e-07
-9.11826e-06
1.06484e-07
-9.14809e-06
1.07437e-07
-9.17547e-06
1.09648e-07
-9.20106e-06
1.12218e-07
-9.22584e-06
1.14883e-07
-9.24965e-06
1.16949e-07
-9.27279e-06
1.18045e-07
-9.29521e-06
1.18476e-07
-9.31699e-06
1.17713e-07
-9.33845e-06
1.16108e-07
-9.35946e-06
1.13137e-07
-9.37909e-06
1.08385e-07
-9.39828e-06
1.01561e-07
-9.41661e-06
9.18498e-08
-9.43547e-06
7.90485e-08
-9.45529e-06
6.17906e-08
-9.47764e-06
3.92327e-08
-9.50769e-06
1.12901e-08
-9.55077e-06
-2.21304e-08
-9.615e-06
-5.80906e-08
-9.70782e-06
-8.79837e-08
-9.82043e-06
-1.07523e-07
-9.78634e-06
-1.13518e-07
-9.38751e-06
4.17245e-07
-9.49911e-06
9.42546e-07
-9.52347e-06
6.30167e-07
-9.55562e-06
4.22697e-07
-9.58963e-06
3.11125e-07
-9.63995e-06
2.5445e-07
-9.65288e-06
2.11336e-07
-9.67178e-06
1.90226e-07
-9.70516e-06
1.72504e-07
-9.74277e-06
1.71517e-07
-9.77796e-06
1.6825e-07
-9.8108e-06
1.70829e-07
-9.82377e-06
1.63706e-07
-9.84507e-06
1.63161e-07
-9.85126e-06
1.57985e-07
-9.87325e-06
1.51904e-07
-9.87807e-06
1.47498e-07
-9.87752e-06
1.46788e-07
-9.90451e-06
1.6693e-07
-9.92887e-06
1.65557e-07
-9.95235e-06
1.66174e-07
-9.94847e-06
1.54289e-07
-9.93742e-06
1.56923e-07
-9.92792e-06
1.6948e-07
-9.90686e-06
1.68288e-07
-9.90098e-06
1.85041e-07
-9.87374e-06
1.78568e-07
-9.85138e-06
1.85646e-07
-9.87669e-06
2.04015e-07
-9.92414e-06
2.10785e-07
-9.95606e-06
2.12985e-07
-9.96367e-06
1.94038e-07
-9.97466e-06
1.85312e-07
-9.96225e-06
1.84531e-07
-9.99796e-06
2.20802e-07
-1.00395e-05
2.44074e-07
-1.00549e-05
2.67738e-07
2.86506e-07
-8.46224e-06
-2.82809e-07
-8.45333e-06
-2.31295e-07
-8.46277e-06
-1.44169e-07
-8.47504e-06
-7.8938e-08
-8.49539e-06
-1.77489e-08
-8.51975e-06
2.99574e-08
-8.54586e-06
6.57864e-08
-8.57634e-06
9.30898e-08
-8.60809e-06
1.10796e-07
-8.64214e-06
1.22808e-07
-8.67847e-06
1.31187e-07
-8.71225e-06
1.39214e-07
-8.74128e-06
1.46516e-07
-8.76825e-06
1.51106e-07
-8.79477e-06
1.53097e-07
-8.8211e-06
1.53219e-07
-8.84743e-06
1.52716e-07
-8.8737e-06
1.51563e-07
-8.89974e-06
1.49601e-07
-8.9259e-06
1.47219e-07
-8.95274e-06
1.44713e-07
-8.98084e-06
1.42812e-07
-9.00944e-06
1.42113e-07
-9.03677e-06
1.42872e-07
-9.06212e-06
1.44838e-07
-9.08623e-06
1.4694e-07
-9.10915e-06
1.48352e-07
-9.13142e-06
1.49332e-07
-9.15334e-06
1.50002e-07
-9.17482e-06
1.50027e-07
-9.19601e-06
1.49603e-07
-9.2167e-06
1.48701e-07
-9.23717e-06
1.47231e-07
-9.25752e-06
1.45273e-07
-9.27789e-06
1.42741e-07
-9.29845e-06
1.39788e-07
-9.31975e-06
1.36602e-07
-9.34203e-06
1.33502e-07
-9.36495e-06
1.30972e-07
-9.38801e-06
1.29548e-07
-9.41e-06
1.29424e-07
-9.43067e-06
1.30322e-07
-9.45029e-06
1.3184e-07
-9.46873e-06
1.33316e-07
-9.48631e-06
1.34527e-07
-9.50362e-06
1.35359e-07
-9.5206e-06
1.35457e-07
-9.53767e-06
1.34779e-07
-9.55462e-06
1.33066e-07
-9.57159e-06
1.30099e-07
-9.58882e-06
1.25617e-07
-9.60656e-06
1.19301e-07
-9.62547e-06
1.10764e-07
-9.64605e-06
9.96301e-08
-9.66959e-06
8.53331e-08
-9.69817e-06
6.78118e-08
-9.73418e-06
4.72992e-08
-9.78177e-06
2.54582e-08
-9.8466e-06
6.74292e-09
-9.93554e-06
9.57632e-10
-1.00715e-05
2.83972e-08
-1.03293e-05
1.44297e-07
-1.03525e-05
4.4048e-07
-9.85322e-06
4.43252e-07
-9.66395e-06
4.40896e-07
-9.6632e-06
4.21949e-07
-9.69469e-06
3.42611e-07
-9.73601e-06
2.95778e-07
-9.75008e-06
2.25399e-07
-9.75456e-06
1.9471e-07
-9.77682e-06
1.94762e-07
-9.7875e-06
1.82205e-07
-9.80119e-06
1.81936e-07
-9.79698e-06
1.66618e-07
-9.80408e-06
1.7081e-07
-9.79835e-06
1.57431e-07
-9.79734e-06
1.56975e-07
-9.79999e-06
1.54546e-07
-9.80048e-06
1.47997e-07
-9.8204e-06
1.66704e-07
-9.8128e-06
1.59333e-07
-9.83123e-06
1.83987e-07
-9.85637e-06
1.9131e-07
-9.87964e-06
1.7756e-07
-9.89282e-06
1.70103e-07
-9.8896e-06
1.66266e-07
-9.8994e-06
1.78086e-07
-9.90797e-06
1.93607e-07
-9.92797e-06
1.98565e-07
-9.94101e-06
1.98694e-07
-9.95411e-06
2.17109e-07
-9.95821e-06
2.14889e-07
-9.94496e-06
1.99732e-07
-9.95772e-06
2.068e-07
-9.98868e-06
2.16271e-07
-1.00425e-05
2.38322e-07
-1.00706e-05
2.48914e-07
-1.00881e-05
2.6161e-07
-1.00654e-05
2.45044e-07
2.21087e-07
-8.45172e-06
-1.88378e-07
-8.58959e-06
-9.3423e-08
-8.68307e-06
-5.06971e-08
-8.75827e-06
-3.73496e-09
-8.81202e-06
3.5999e-08
-8.85619e-06
7.41309e-08
-8.89645e-06
1.06047e-07
-8.93278e-06
1.29417e-07
-8.96698e-06
1.44997e-07
-8.99819e-06
1.5402e-07
-9.02704e-06
1.60036e-07
-9.05254e-06
1.64708e-07
-9.07398e-06
1.67965e-07
-9.09311e-06
1.7023e-07
-9.11101e-06
1.70999e-07
-9.12859e-06
1.70801e-07
-9.14577e-06
1.69892e-07
-9.16271e-06
1.68506e-07
-9.17992e-06
1.66813e-07
-9.19776e-06
1.65055e-07
-9.21647e-06
1.63427e-07
-9.23591e-06
1.62247e-07
-9.25543e-06
1.61637e-07
-9.27456e-06
1.62003e-07
-9.29229e-06
1.62568e-07
-9.30884e-06
1.63489e-07
-9.32474e-06
1.64246e-07
-9.3402e-06
1.64795e-07
-9.35521e-06
1.65007e-07
-9.3701e-06
1.64917e-07
-9.38472e-06
1.64226e-07
-9.39912e-06
1.63106e-07
-9.41356e-06
1.61664e-07
-9.42807e-06
1.59788e-07
-9.4428e-06
1.57471e-07
-9.45795e-06
1.54935e-07
-9.47372e-06
1.52378e-07
-9.49015e-06
1.49931e-07
-9.50702e-06
1.47846e-07
-9.524e-06
1.46528e-07
-9.54048e-06
1.45899e-07
-9.5562e-06
1.46046e-07
-9.57108e-06
1.46718e-07
-9.58521e-06
1.47444e-07
-9.59857e-06
1.47885e-07
-9.61159e-06
1.48387e-07
-9.6245e-06
1.48358e-07
-9.6375e-06
1.47782e-07
-9.65066e-06
1.46227e-07
-9.66424e-06
1.4368e-07
-9.6786e-06
1.39972e-07
-9.69407e-06
1.34771e-07
-9.71132e-06
1.28018e-07
-9.73113e-06
1.19443e-07
-9.75462e-06
1.08818e-07
-9.78331e-06
9.65009e-08
-9.81891e-06
8.29041e-08
-9.86276e-06
6.9307e-08
-9.91496e-06
5.89381e-08
-9.97162e-06
5.76201e-08
-1.00201e-05
7.69234e-08
-1.00224e-05
1.46568e-07
-9.8605e-06
2.78568e-07
-9.80154e-06
3.84293e-07
-9.77481e-06
4.14163e-07
-9.74406e-06
3.912e-07
-9.74594e-06
3.44487e-07
-9.73533e-06
2.85167e-07
-9.73983e-06
2.29902e-07
-9.74897e-06
2.03852e-07
-9.75312e-06
1.98916e-07
-9.76706e-06
1.96145e-07
-9.76928e-06
1.84156e-07
-9.77085e-06
1.68184e-07
-9.76558e-06
1.6554e-07
-9.78088e-06
1.72734e-07
-9.77671e-06
1.528e-07
-9.78364e-06
1.61479e-07
-9.79812e-06
1.62474e-07
-9.80173e-06
1.70314e-07
-9.80653e-06
1.64141e-07
-9.79198e-06
1.69433e-07
-9.75892e-06
1.58251e-07
-9.76163e-06
1.80276e-07
-9.78268e-06
1.91147e-07
-9.80627e-06
1.8986e-07
-9.83379e-06
2.05604e-07
-9.85361e-06
2.13427e-07
-9.87956e-06
2.24516e-07
-9.90726e-06
2.26393e-07
-9.9099e-06
2.19752e-07
-9.90164e-06
2.06626e-07
-9.91724e-06
2.15333e-07
-9.9422e-06
2.31762e-07
-9.94763e-06
2.217e-07
-9.93816e-06
2.28856e-07
-9.92757e-06
2.38318e-07
-9.92698e-06
2.61026e-07
-9.94705e-06
2.65117e-07
2.74033e-07
-9.05509e-06
-1.57048e-07
-9.08126e-06
-6.72591e-08
-9.12554e-06
-6.41586e-09
-9.17091e-06
4.16403e-08
-9.21873e-06
8.38148e-08
-9.26484e-06
1.20243e-07
-9.30666e-06
1.47863e-07
-9.3432e-06
1.65965e-07
-9.37434e-06
1.76128e-07
-9.40082e-06
1.80505e-07
-9.42265e-06
1.8186e-07
-9.44017e-06
1.82235e-07
-9.4544e-06
1.82194e-07
-9.466e-06
1.81828e-07
-9.47594e-06
1.80936e-07
-9.48505e-06
1.79918e-07
-9.49379e-06
1.78629e-07
-9.5025e-06
1.77216e-07
-9.5117e-06
1.76011e-07
-9.52137e-06
1.74726e-07
-9.5317e-06
1.73753e-07
-9.54256e-06
1.73112e-07
-9.55365e-06
1.72731e-07
-9.56429e-06
1.72639e-07
-9.57451e-06
1.72791e-07
-9.58401e-06
1.72984e-07
-9.59302e-06
1.73262e-07
-9.60166e-06
1.73432e-07
-9.6099e-06
1.73251e-07
-9.61795e-06
1.72964e-07
-9.62595e-06
1.7223e-07
-9.6342e-06
1.71354e-07
-9.64267e-06
1.70134e-07
-9.65137e-06
1.68488e-07
-9.66046e-06
1.66559e-07
-9.66999e-06
1.64468e-07
-9.68006e-06
1.62445e-07
-9.69085e-06
1.60723e-07
-9.70196e-06
1.5895e-07
-9.71331e-06
1.57884e-07
-9.72442e-06
1.57002e-07
-9.73552e-06
1.57151e-07
-9.74585e-06
1.57043e-07
-9.75577e-06
1.57373e-07
-9.7653e-06
1.57413e-07
-9.77465e-06
1.57735e-07
-9.78404e-06
1.57745e-07
-9.79358e-06
1.57323e-07
-9.80329e-06
1.55938e-07
-9.81338e-06
1.53774e-07
-9.82442e-06
1.51011e-07
-9.8366e-06
1.46952e-07
-9.85068e-06
1.421e-07
-9.86737e-06
1.36134e-07
-9.88734e-06
1.28781e-07
-9.91161e-06
1.20771e-07
-9.94141e-06
1.12712e-07
-9.97648e-06
1.04368e-07
-1.00143e-05
9.67529e-08
-1.00449e-05
8.82222e-08
-1.00371e-05
6.91121e-08
-9.89008e-06
-4.29978e-10
-9.58348e-06
-2.80327e-08
-9.78613e-06
5.86939e-07
-9.89935e-06
5.27384e-07
-9.87501e-06
3.66863e-07
-9.87301e-06
3.42489e-07
-9.84556e-06
2.57713e-07
-9.85422e-06
2.38569e-07
-9.86789e-06
2.17518e-07
-9.88142e-06
2.12444e-07
-9.86402e-06
1.78746e-07
-9.84886e-06
1.69001e-07
-9.85428e-06
1.73597e-07
-9.85691e-06
1.68174e-07
-9.85909e-06
1.74909e-07
-9.88484e-06
1.78556e-07
-9.90786e-06
1.84495e-07
-9.9306e-06
1.85218e-07
-9.94039e-06
1.80108e-07
-9.95953e-06
1.83276e-07
-9.96468e-06
1.74583e-07
-9.98822e-06
1.81788e-07
-1e-05
1.92057e-07
-9.99969e-06
1.90836e-07
-1.00215e-05
2.11721e-07
-1.00273e-05
2.11355e-07
-1.00263e-05
2.12469e-07
-1.00205e-05
2.18708e-07
-9.9966e-06
2.02464e-07
-9.99836e-06
2.21511e-07
-1.00297e-05
2.38009e-07
-1.00666e-05
2.5221e-07
-1.00633e-05
2.28461e-07
-1.00852e-05
2.43539e-07
-1.00898e-05
2.33512e-07
-1.00741e-05
2.2261e-07
-1.00585e-05
2.45471e-07
-1.0028e-05
2.34603e-07
2.45998e-07
-1.118e-05
-1.05409e-07
-1.11999e-05
-4.73672e-08
-1.11906e-05
-1.56964e-08
-1.11878e-05
3.88562e-08
-1.11911e-05
8.71131e-08
-1.11971e-05
1.26232e-07
-1.12038e-05
1.54536e-07
-1.12071e-05
1.69308e-07
-1.1209e-05
1.77964e-07
-1.12064e-05
1.77922e-07
-1.12021e-05
1.77573e-07
-1.11949e-05
1.74992e-07
-1.11843e-05
1.71631e-07
-1.11718e-05
1.69306e-07
-1.11578e-05
1.67e-07
-1.11429e-05
1.64975e-07
-1.11272e-05
1.62931e-07
-1.11114e-05
1.61428e-07
-1.1096e-05
1.60604e-07
-1.10808e-05
1.59527e-07
-1.10662e-05
1.59152e-07
-1.10527e-05
1.5959e-07
-1.10394e-05
1.59411e-07
-1.10261e-05
1.59392e-07
-1.10124e-05
1.59069e-07
-1.09986e-05
1.59189e-07
-1.09848e-05
1.59405e-07
-1.09706e-05
1.59319e-07
-1.09565e-05
1.59139e-07
-1.09428e-05
1.59233e-07
-1.09291e-05
1.58547e-07
-1.09157e-05
1.57954e-07
-1.09025e-05
1.56963e-07
-1.08906e-05
1.56508e-07
-1.08781e-05
1.54142e-07
-1.08666e-05
1.52877e-07
-1.08565e-05
1.52349e-07
-1.08476e-05
1.51886e-07
-1.08388e-05
1.50086e-07
-1.08288e-05
1.47946e-07
-1.08191e-05
1.47281e-07
-1.08093e-05
1.47315e-07
-1.07987e-05
1.46443e-07
-1.07882e-05
1.4688e-07
-1.07773e-05
1.46499e-07
-1.07678e-05
1.48235e-07
-1.07566e-05
1.46629e-07
-1.07467e-05
1.47389e-07
-1.07379e-05
1.47135e-07
-1.07282e-05
1.4411e-07
-1.07199e-05
1.4263e-07
-1.07121e-05
1.39159e-07
-1.07068e-05
1.36828e-07
-1.07039e-05
1.33263e-07
-1.07033e-05
1.28131e-07
-1.07063e-05
1.23819e-07
-1.07149e-05
1.2125e-07
-1.07267e-05
1.16245e-07
-1.07419e-05
1.11912e-07
-1.07587e-05
1.05068e-07
-1.07754e-05
8.57793e-08
-1.08096e-05
3.37396e-08
-1.07768e-05
-6.08096e-08
-1.04839e-05
2.94048e-07
-1.0438e-05
4.81441e-07
-1.03891e-05
3.17957e-07
-1.03069e-05
2.60352e-07
-1.02888e-05
2.39593e-07
-1.02699e-05
2.19694e-07
-1.02566e-05
2.04234e-07
-1.02306e-05
1.86414e-07
-1.02341e-05
1.82208e-07
-1.02453e-05
1.80266e-07
-1.02423e-05
1.70525e-07
-1.02402e-05
1.66157e-07
-1.02171e-05
1.51778e-07
-1.0189e-05
1.50409e-07
-1.01725e-05
1.68013e-07
-1.01616e-05
1.74315e-07
-1.01434e-05
1.61884e-07
-1.01242e-05
1.64169e-07
-1.01289e-05
1.79264e-07
-1.01232e-05
1.76047e-07
-1.01091e-05
1.7796e-07
-1.01109e-05
1.92663e-07
-1.00959e-05
1.96753e-07
-1.00786e-05
1.93977e-07
-1.00653e-05
1.99216e-07
-1.00243e-05
1.77662e-07
-1.00126e-05
1.90843e-07
-9.98943e-06
1.98297e-07
-9.97902e-06
2.27598e-07
-9.9442e-06
2.17385e-07
-9.93675e-06
2.2101e-07
-9.93686e-06
2.43656e-07
-9.93018e-06
2.26833e-07
-9.93194e-06
2.24368e-07
-9.93509e-06
2.48625e-07
-9.97376e-06
2.73273e-07
2.72235e-07
-2.6367e-05
-2.64144e-05
-2.64301e-05
-2.63913e-05
-2.63041e-05
-2.61779e-05
-2.60234e-05
-2.58541e-05
-2.56761e-05
-2.54982e-05
-2.53206e-05
-2.51456e-05
-2.4974e-05
-2.48047e-05
-2.46377e-05
-2.44727e-05
-2.43098e-05
-2.41483e-05
-2.39877e-05
-2.38282e-05
-2.36691e-05
-2.35095e-05
-2.33501e-05
-2.31907e-05
-2.30316e-05
-2.28724e-05
-2.2713e-05
-2.25537e-05
-2.23945e-05
-2.22353e-05
-2.20768e-05
-2.19188e-05
-2.17618e-05
-2.16053e-05
-2.14512e-05
-2.12983e-05
-2.1146e-05
-2.09941e-05
-2.0844e-05
-2.06961e-05
-2.05488e-05
-2.04015e-05
-2.0255e-05
-2.01081e-05
-1.99616e-05
-1.98134e-05
-1.96668e-05
-1.95194e-05
-1.93722e-05
-1.92281e-05
-1.90855e-05
-1.89464e-05
-1.88095e-05
-1.86763e-05
-1.85481e-05
-1.84243e-05
-1.83031e-05
-1.81868e-05
-1.80749e-05
-1.79698e-05
-1.78841e-05
-1.78503e-05
-1.79111e-05
-1.76171e-05
-1.71356e-05
-1.68177e-05
-1.65573e-05
-1.63177e-05
-1.6098e-05
-1.58938e-05
-1.57074e-05
-1.55252e-05
-1.53449e-05
-1.51744e-05
-1.50082e-05
-1.48565e-05
-1.4706e-05
-1.4538e-05
-1.43637e-05
-1.42018e-05
-1.40377e-05
-1.38584e-05
-1.36824e-05
-1.35044e-05
-1.33117e-05
-1.3115e-05
-1.2921e-05
-1.27218e-05
-1.25441e-05
-1.23533e-05
-1.2155e-05
-1.19274e-05
-1.171e-05
-1.1489e-05
-1.12453e-05
-1.10185e-05
-1.07941e-05
-1.05455e-05
-1.02722e-05
)
;

boundaryField
{
    inlet
    {
        type            calculated;
        value           nonuniform List<scalar> 10(-1e-05 -1e-05 -1e-05 -1e-05 -1e-05 -1e-05 -1e-05 -1e-05 -1e-05 -1e-05);
    }
    outlet
    {
        type            calculated;
        value           nonuniform List<scalar> 10(7.55422e-06 7.26156e-06 7.10238e-06 6.81232e-06 8.03084e-06 8.46773e-06 8.35729e-06 9.02376e-06 1.11284e-05 2.62616e-05);
    }
    walls
    {
        type            calculated;
        value           uniform 0;
    }
}


// ************************************************************************* //
