/*--------------------------------*- C++ -*----------------------------------*\
| =========                 |                                                 |
| \\      /  F ield         | foam-extend: Open Source CFD                    |
|  \\    /   O peration     | Version:     5.0                                |
|   \\  /    A nd           | Web:         http://www.foam-extend.org         |
|    \\/     M anipulation  |                                                 |
\*---------------------------------------------------------------------------*/
FoamFile
{
    version     2.0;
    format      ascii;
    class       surfaceScalarField;
    location    "8000";
    object      phi.oil;
}
// * * * * * * * * * * * * * * * * * * * * * * * * * * * * * * * * * * * * * //

dimensions      [0 3 -1 0 0 0 0];

internalField   nonuniform List<scalar> 
1890
(
-3.32189e-05
-1.29508e-06
-3.67979e-05
-6.02549e-07
-3.94272e-05
-4.49715e-07
-3.91586e-05
-2.54501e-07
-4.25374e-05
-1.45713e-07
-4.51639e-05
-9.13533e-08
-3.99414e-05
-6.87264e-08
-3.99122e-05
-2.32663e-08
-4.50634e-05
1.12852e-09
-3.49622e-05
4.3555e-08
-3.04741e-05
8.09576e-08
-3.05176e-05
4.87786e-08
-2.92502e-05
4.4873e-09
-2.98701e-05
-2.82024e-09
-3.69506e-05
5.66656e-09
-4.38948e-05
1.34872e-08
-3.4272e-05
1.62068e-08
-3.19463e-05
1.10308e-08
-3.26968e-05
8.2649e-09
-2.99202e-05
6.44655e-09
-3.27226e-05
1.95091e-08
-3.81529e-05
1.14724e-07
-3.64139e-05
2.43307e-07
-3.64931e-05
7.83589e-08
-4.06698e-05
6.1654e-09
-3.9548e-05
8.31873e-09
-3.47418e-05
1.87456e-08
-3.23933e-05
2.39416e-08
-3.85471e-05
2.18456e-08
-4.75774e-05
3.45231e-08
-3.86006e-05
2.79933e-08
-3.48538e-05
2.33878e-08
-3.76251e-05
2.03395e-08
-3.97301e-05
1.44716e-08
-3.66792e-05
8.54794e-09
-3.10848e-05
-9.77772e-09
-3.03831e-05
-4.54143e-08
-3.64964e-05
-1.1817e-07
-3.93328e-05
-3.35604e-07
-3.17488e-05
-3.8663e-07
-3.13261e-05
-1.84874e-07
-3.133e-05
-1.31267e-07
-3.35604e-05
-8.08506e-08
-3.43892e-05
-8.11088e-08
-3.05448e-05
-7.33827e-08
-3.71242e-05
-6.87055e-08
-3.92259e-05
-9.47786e-08
-3.26652e-05
-8.67139e-08
-3.51484e-05
-8.64709e-08
-3.60444e-05
-9.56816e-08
-3.33681e-05
-9.21017e-08
-3.25293e-05
-1.00759e-07
-3.24681e-05
-1.31611e-07
-3.6764e-05
-1.31576e-07
-3.56746e-05
-1.8641e-07
-3.74526e-05
-2.20633e-07
-3.82043e-05
-4.03259e-07
-3.56055e-05
-5.90578e-07
-3.89503e-05
-9.92318e-07
-3.91372e-05
-1.62391e-06
-3.2889e-05
5.13297e-07
-2.34462e-05
1.63142e-06
-1.91826e-05
1.1648e-06
-2.157e-05
5.5403e-07
-1.86043e-05
2.44816e-07
-1.73106e-05
1.85922e-07
-1.76232e-05
1.32276e-08
-1.67615e-05
1.80078e-08
-1.75401e-05
-3.45878e-08
-1.73598e-05
-5.77669e-08
-1.54515e-05
-7.04187e-08
-1.51086e-05
-4.86125e-08
-1.5522e-05
-6.48176e-08
-1.37058e-05
-4.09898e-08
-1.31763e-05
-3.08428e-08
-1.29965e-05
-2.97221e-08
-1.28547e-05
-3.92917e-08
-1.30508e-05
-4.50128e-08
-1.15919e-05
-5.01733e-08
-1.01257e-05
-3.64042e-08
-1.01887e-05
-3.2666e-08
-9.6861e-06
-4.03083e-08
-9.94637e-06
-4.41808e-08
-1.01103e-05
-4.3799e-08
-8.33715e-06
-3.60952e-08
-7.92054e-06
-2.95881e-08
-7.19198e-06
-3.02372e-08
-5.79104e-06
-3.68765e-09
-5.47348e-06
-9.23286e-09
-5.70535e-06
-2.41439e-08
-5.87079e-06
-4.01686e-08
-4.35843e-06
-1.54139e-08
-3.85749e-06
1.0976e-08
-3.93127e-06
9.65218e-10
-3.25653e-06
-8.46326e-09
-2.37375e-06
2.12927e-09
-1.70931e-06
1.50332e-08
-1.2157e-06
1.15669e-08
-9.30536e-07
-2.21488e-08
-1.8092e-08
-3.78666e-05
-1.69174e-06
-3.56087e-05
-9.55737e-07
-3.81976e-05
-8.11474e-07
-3.26979e-05
-4.71434e-07
-2.91961e-05
-2.20267e-07
-3.49639e-05
-1.44727e-07
-3.49211e-05
-1.03919e-07
-3.17242e-05
-4.55531e-08
-3.57816e-05
-8.57194e-09
-3.87971e-05
7.612e-08
-3.89757e-05
2.50375e-07
-3.51393e-05
1.04673e-07
-3.69529e-05
-3.05919e-08
-4.12749e-05
-2.74005e-08
-3.5091e-05
1.89193e-08
-3.69506e-05
2.65011e-08
-4.01369e-05
3.74295e-08
-3.60317e-05
2.83797e-08
-3.42789e-05
1.67384e-08
-3.51203e-05
-6.82356e-09
-3.59526e-05
-5.6235e-08
-3.6662e-05
-1.78196e-07
-3.8045e-05
-3.14927e-07
-3.52144e-05
-1.406e-07
-3.40855e-05
-5.12115e-08
-3.23554e-05
-4.18334e-08
-3.39718e-05
-5.05573e-08
-3.3945e-05
-5.69084e-08
-3.67204e-05
-6.17964e-08
-3.47616e-05
-7.48684e-08
-3.38065e-05
-5.43487e-08
-3.87374e-05
-7.78989e-08
-3.65287e-05
-8.26402e-08
-3.54856e-05
-9.4583e-08
-3.04807e-05
-1.02689e-07
-3.041e-05
-1.32598e-07
-3.03608e-05
-1.87598e-07
-2.83504e-05
-2.08617e-07
-3.18928e-05
-2.70715e-07
-3.05359e-05
-3.64646e-07
-2.98524e-05
-2.92647e-07
-3.12514e-05
-2.21905e-07
-2.98002e-05
-2.17482e-07
-3.35882e-05
-1.59698e-07
-3.53748e-05
-1.80833e-07
-3.63205e-05
-1.88682e-07
-4.21397e-05
-2.06817e-07
-4.3502e-05
-1.99426e-07
-3.83466e-05
-2.07607e-07
-3.33905e-05
-2.14084e-07
-3.09663e-05
-2.30883e-07
-3.50942e-05
-2.45958e-07
-3.32415e-05
-3.07927e-07
-2.81195e-05
-2.68543e-07
-2.86663e-05
-3.22511e-07
-2.98885e-05
-4.06888e-07
-3.3648e-05
-6.79925e-07
-3.0241e-05
-1.06219e-06
-2.62937e-05
-1.38347e-06
-2.88167e-05
-1.96231e-06
-3.08835e-05
-1.51303e-06
-2.99396e-05
2.67542e-06
-2.5052e-05
1.9717e-06
-2.07746e-05
1.10003e-06
-2.12186e-05
3.84645e-07
-1.95933e-05
1.47205e-07
-1.77076e-05
8.47798e-08
-2.03493e-05
-3.61349e-08
-1.89682e-05
-7.68069e-08
-1.67899e-05
-9.80128e-08
-1.44845e-05
-7.55492e-08
-1.2647e-05
-5.52691e-08
-1.22857e-05
-5.29472e-08
-1.40359e-05
-8.77939e-08
-1.56549e-05
-1.09609e-07
-1.61475e-05
-1.15508e-07
-1.33845e-05
-1.0434e-07
-1.20448e-05
-7.0684e-08
-1.05023e-05
-8.48808e-08
-1.00546e-05
-6.08131e-08
-1.14528e-05
-9.25014e-08
-8.83477e-06
-7.94391e-08
-8.60062e-06
-5.7298e-08
-1.03511e-05
-8.92627e-08
-7.90471e-06
-7.67213e-08
-6.71657e-06
-4.27203e-08
-7.34947e-06
-6.25028e-08
-7.44464e-06
-5.93129e-08
-6.27866e-06
-5.04131e-08
-4.76953e-06
-2.20996e-08
-4.1019e-06
-3.11206e-09
-4.06433e-06
-1.87299e-08
-4.71551e-06
-5.69516e-08
-4.11568e-06
-6.37365e-08
-3.02197e-06
-4.66153e-08
-2.43232e-06
-4.44488e-08
-2.12901e-06
-5.58063e-08
-1.62988e-06
-4.92748e-08
-9.65554e-07
-5.67478e-08
-3.40879e-08
-3.37459e-05
-1.74037e-06
-3.91602e-05
-1.29777e-06
-4.38491e-05
-9.07261e-07
-3.41297e-05
-5.61576e-07
-3.10419e-05
-3.20129e-07
-3.32226e-05
-2.14044e-07
-3.4005e-05
-1.29398e-07
-3.48256e-05
-8.14553e-08
-3.75868e-05
-7.02073e-08
-3.5507e-05
-1.31009e-07
-2.96713e-05
-2.85671e-07
-3.17845e-05
-1.1221e-07
-3.59118e-05
1.58562e-08
-3.67009e-05
8.79183e-09
-3.77584e-05
-2.71582e-08
-3.4621e-05
-4.40027e-08
-3.45406e-05
-5.16449e-08
-3.44654e-05
-7.30188e-08
-3.18013e-05
-9.03174e-08
-3.25217e-05
-1.15968e-07
-3.33109e-05
-1.4701e-07
-3.08777e-05
-2.26988e-07
-3.02362e-05
-2.36459e-07
-2.82072e-05
-1.80877e-07
-2.6944e-05
-1.4921e-07
-3.16077e-05
-1.2753e-07
-3.50909e-05
-1.62807e-07
-3.71145e-05
-1.64726e-07
-3.94049e-05
-1.55451e-07
-3.07302e-05
-1.52309e-07
-2.7967e-05
-1.5068e-07
-2.99388e-05
-1.81228e-07
-2.99116e-05
-1.61315e-07
-2.85265e-05
-2.075e-07
-3.21495e-05
-2.03988e-07
-3.68516e-05
-2.68017e-07
-3.21118e-05
-2.73367e-07
-2.78403e-05
-3.23464e-07
-2.988e-05
-3.45802e-07
-3.81105e-05
-3.42386e-07
-3.40246e-05
-3.71877e-07
-3.40241e-05
-3.26792e-07
-3.2271e-05
-3.13652e-07
-2.73489e-05
-2.36893e-07
-3.2242e-05
-2.85835e-07
-3.59094e-05
-2.68244e-07
-3.22098e-05
-3.08277e-07
-2.98946e-05
-2.67874e-07
-3.21772e-05
-2.75623e-07
-3.58337e-05
-2.80004e-07
-3.7978e-05
-3.8939e-07
-3.57801e-05
-3.52949e-07
-3.12792e-05
-3.79106e-07
-2.8408e-05
-3.80594e-07
-2.77466e-05
-4.24815e-07
-3.28188e-05
-6.04394e-07
-4.01867e-05
-7.76246e-07
-4.15487e-05
-1.27547e-06
-3.58367e-05
-1.53508e-06
-3.56456e-05
-1.75294e-06
-4.20515e-05
-1.9453e-06
-3.61908e-05
8.7889e-07
-2.85368e-05
2.96086e-06
-2.38111e-05
2.0477e-06
-1.82658e-05
1.02055e-06
-1.84969e-05
5.79836e-07
-1.97039e-05
1.77777e-07
-1.87603e-05
1.1641e-07
-1.66935e-05
4.24524e-08
-1.3796e-05
4.07193e-08
-1.40077e-05
4.93458e-08
-1.66403e-05
9.6984e-09
-1.41693e-05
-1.42129e-08
-1.1932e-05
9.01408e-09
-1.1759e-05
-2.88616e-08
-1.09766e-05
-2.49543e-08
-1.27425e-05
-4.06364e-08
-1.31629e-05
-5.51669e-08
-1.0477e-05
-2.7797e-08
-9.10477e-06
-1.90578e-08
-8.26034e-06
-2.02451e-08
-8.8843e-06
-3.99211e-08
-8.55385e-06
-6.1159e-08
-7.4341e-06
-3.9931e-08
-7.9022e-06
-4.83093e-08
-7.28909e-06
-5.24309e-08
-6.03042e-06
-3.7669e-08
-5.62941e-06
-3.38631e-08
-5.22282e-06
-3.47573e-08
-5.33593e-06
-2.19859e-08
-6.1654e-06
-4.85001e-08
-4.9722e-06
-4.75665e-08
-4.27152e-06
-5.20531e-08
-3.99196e-06
-4.49012e-08
-3.50283e-06
-3.15546e-08
-2.5297e-06
-1.81154e-08
-1.92729e-06
1.39776e-08
-1.71438e-06
-1.31724e-08
-8.59168e-07
6.92989e-09
-1.95737e-09
-3.52463e-05
-1.40933e-06
-2.99645e-05
-1.13031e-06
-2.71627e-05
-7.2345e-07
-3.12621e-05
-6.39648e-07
-3.47151e-05
-5.40434e-07
-3.3725e-05
-4.14272e-07
-3.03747e-05
-3.1987e-07
-2.82291e-05
-2.19052e-07
-3.01965e-05
-1.74893e-07
-3.52937e-05
-2.18585e-07
-3.64324e-05
-2.40755e-07
-3.17259e-05
-1.96044e-07
-2.93168e-05
-1.10974e-07
-3.06797e-05
-9.13203e-08
-3.50045e-05
-1.02646e-07
-3.39977e-05
-1.39833e-07
-3.30285e-05
-1.27685e-07
-3.59051e-05
-1.36349e-07
-3.69526e-05
-1.6081e-07
-3.12473e-05
-2.10254e-07
-3.04461e-05
-2.05957e-07
-3.20813e-05
-2.87829e-07
-2.71351e-05
-2.67673e-07
-2.90895e-05
-2.15602e-07
-3.13204e-05
-2.62369e-07
-3.21257e-05
-2.11054e-07
-3.81332e-05
-2.17435e-07
-3.29713e-05
-2.36314e-07
-2.7714e-05
-2.1505e-07
-3.1255e-05
-2.25243e-07
-3.80797e-05
-2.19561e-07
-3.29261e-05
-2.93429e-07
-3.29114e-05
-2.26049e-07
-3.8046e-05
-2.85114e-07
-3.47766e-05
-2.58549e-07
-3.20283e-05
-3.45053e-07
-3.38131e-05
-3.42544e-07
-3.92934e-05
-3.92558e-07
-3.2096e-05
-4.74175e-07
-2.77586e-05
-3.25399e-07
-3.30424e-05
-3.70948e-07
-3.21914e-05
-3.59531e-07
-2.71905e-05
-2.95491e-07
-3.13772e-05
-3.16258e-07
-3.13793e-05
-3.84351e-07
-3.05937e-05
-3.0984e-07
-3.30739e-05
-3.62804e-07
-3.05931e-05
-3.16129e-07
-2.78124e-05
-3.68496e-07
-3.13778e-05
-3.62783e-07
-3.30713e-05
-4.11588e-07
-2.91326e-05
-4.06226e-07
-2.8454e-05
-4.10091e-07
-2.65997e-05
-4.91331e-07
-3.05955e-05
-5.30893e-07
-3.13946e-05
-6.66145e-07
-3.31412e-05
-7.94704e-07
-3.72809e-05
-1.17998e-06
-3.54141e-05
-1.10903e-06
-3.69248e-05
-1.63229e-06
-3.3545e-05
-1.59943e-06
-3.32739e-05
-1.04256e-06
-3.39821e-05
2.39153e-06
-2.69524e-05
2.30752e-06
-2.37854e-05
1.38114e-06
-2.03229e-05
5.77361e-07
-1.74557e-05
2.50375e-07
-1.72255e-05
1.02825e-07
-1.51008e-05
1.21748e-07
-1.71501e-05
2.9591e-08
-1.93477e-05
-3.96673e-08
-1.7012e-05
-3.42645e-08
-1.68082e-05
-2.6136e-08
-1.41998e-05
-1.58896e-08
-1.24523e-05
1.15204e-08
-1.17879e-05
-1.56347e-08
-1.14032e-05
1.79355e-09
-1.29671e-05
-4.43797e-08
-1.17768e-05
-2.21351e-08
-1.18812e-05
-2.14605e-08
-1.08559e-05
-3.57881e-08
-8.82895e-06
-2.08347e-08
-8.34441e-06
-1.49518e-08
-8.29297e-06
3.59091e-09
-7.34446e-06
6.36653e-09
-6.51324e-06
7.14596e-09
-6.103e-06
4.89852e-09
-5.47019e-06
-8.02738e-09
-5.35692e-06
-5.19563e-09
-5.81011e-06
-2.40563e-08
-6.48046e-06
-5.81159e-08
-4.79815e-06
-5.39539e-08
-3.45458e-06
-1.88932e-08
-3.41927e-06
-2.05011e-08
-3.00697e-06
-3.32654e-08
-2.50052e-06
-1.42619e-08
-2.39328e-06
-3.24212e-08
-1.61067e-06
-2.29219e-09
-9.49694e-07
2.93079e-08
4.84197e-08
-2.97591e-05
-1.80596e-06
-2.76064e-05
-1.49138e-06
-2.69721e-05
-1.02686e-06
-2.82844e-05
-8.51956e-07
-2.90139e-05
-7.28834e-07
-3.13306e-05
-5.57847e-07
-3.13402e-05
-4.06924e-07
-2.77012e-05
-3.61465e-07
-2.9054e-05
-2.482e-07
-2.97951e-05
-2.45003e-07
-3.06002e-05
-2.15598e-07
-3.73084e-05
-2.50445e-07
-3.84726e-05
-1.90851e-07
-3.40365e-05
-1.90223e-07
-3.40058e-05
-1.53799e-07
-3.39919e-05
-1.74416e-07
-2.76564e-05
-2.00751e-07
-2.58427e-05
-1.92251e-07
-2.97138e-05
-1.9652e-07
-3.3962e-05
-2.17783e-07
-3.60352e-05
-2.30192e-07
-3.60684e-05
-2.73826e-07
-3.13604e-05
-2.92355e-07
-3.22345e-05
-2.67914e-07
-3.40927e-05
-2.81129e-07
-2.98379e-05
-2.81742e-07
-2.91153e-05
-2.26096e-07
-3.22678e-05
-2.42576e-07
-3.6185e-05
-2.79168e-07
-3.06246e-05
-3.00391e-07
-3.06278e-05
-2.52991e-07
-3.31876e-05
-2.96442e-07
-2.98745e-05
-2.75077e-07
-2.71658e-05
-2.93444e-07
-3.0657e-05
-2.53642e-07
-3.85861e-05
-3.22689e-07
-3.52034e-05
-3.49838e-07
-3.63014e-05
-3.78563e-07
-3.2415e-05
-4.17563e-07
-3.00209e-05
-3.63122e-07
-2.93213e-05
-3.63296e-07
-2.56005e-05
-3.05512e-07
-2.80014e-05
-3.44589e-07
-3.25608e-05
-3.31168e-07
-3.25761e-05
-3.27671e-07
-3.1733e-05
-3.92249e-07
-2.94239e-05
-3.36523e-07
-3.09464e-05
-3.78333e-07
-3.77324e-05
-4.09224e-07
-3.35558e-05
-4.11682e-07
-3.18049e-05
-3.52996e-07
-3.10069e-05
-4.02605e-07
-3.18458e-05
-4.45687e-07
-3.56222e-05
-5.92322e-07
-3.10932e-05
-5.74452e-07
-3.28354e-05
-6.87704e-07
-3.80714e-05
-7.88642e-07
-3.22045e-05
-9.08408e-07
-3.3322e-05
-9.32573e-07
-3.66343e-05
-1.28565e-06
-3.60655e-05
-1.17901e-06
-3.5745e-05
-1.16883e-06
-2.98434e-05
6.13332e-07
-2.8476e-05
2.17518e-06
-2.49615e-05
1.04268e-06
-1.90773e-05
5.71692e-07
-1.59177e-05
2.84175e-07
-1.73374e-05
1.65576e-07
-1.94775e-05
1.21488e-07
-1.50205e-05
7.05909e-08
-1.35667e-05
2.2257e-08
-1.33387e-05
2.12995e-08
-1.30345e-05
3.58885e-09
-1.42212e-05
-1.59927e-10
-1.33946e-05
-2.762e-08
-1.34346e-05
-2.76137e-08
-1.24002e-05
-5.63966e-08
-1.16516e-05
-4.78957e-08
-1.38979e-05
-8.11714e-08
-1.11917e-05
-6.78505e-08
-9.11226e-06
-4.01793e-08
-8.2108e-06
-4.63623e-08
-8.83884e-06
-4.71289e-08
-1.06669e-05
-7.17554e-08
-9.56363e-06
-6.67759e-08
-8.94108e-06
-4.5948e-08
-7.61069e-06
-5.01727e-08
-6.7265e-06
-2.12098e-08
-7.56539e-06
-3.32874e-08
-5.98445e-06
-1.63211e-08
-4.4536e-06
5.53382e-09
-3.85141e-06
1.07243e-09
-3.74858e-06
-9.90065e-09
-3.49636e-06
-3.32183e-08
-2.97344e-06
-2.95172e-08
-2.45985e-06
-2.5095e-08
-1.67869e-06
5.9272e-09
-1.2269e-06
6.05597e-09
-8.03041e-07
7.10884e-09
1.63208e-10
-3.40178e-05
-2.1452e-06
-2.8738e-05
-1.44681e-06
-2.61058e-05
-1.18107e-06
-2.87773e-05
-8.33296e-07
-3.1194e-05
-7.66303e-07
-2.7554e-05
-6.85106e-07
-2.90109e-05
-4.38033e-07
-2.98052e-05
-4.08046e-07
-2.58806e-05
-3.16861e-07
-2.59254e-05
-2.40738e-07
-3.07499e-05
-2.28563e-07
-3.16109e-05
-2.87049e-07
-3.07873e-05
-1.88449e-07
-2.99988e-05
-2.19354e-07
-2.65902e-05
-1.69135e-07
-3.07907e-05
-2.04745e-07
-3.77504e-05
-2.36497e-07
-3.44296e-05
-2.20596e-07
-2.85625e-05
-2.20281e-07
-2.54727e-05
-2.21041e-07
-2.60596e-05
-2.3235e-07
-2.93476e-05
-2.53719e-07
-3.17635e-05
-2.59379e-07
-3.09599e-05
-3.15042e-07
-3.27069e-05
-2.50421e-07
-3.10081e-05
-2.53008e-07
-2.80728e-05
-2.23427e-07
-3.10463e-05
-2.6421e-07
-3.37265e-05
-2.51822e-07
-3.47375e-05
-3.08491e-07
-3.28262e-05
-2.95674e-07
-3.11158e-05
-2.71114e-07
-3.19753e-05
-2.93653e-07
-2.95957e-05
-3.11606e-07
-2.63254e-05
-2.58676e-07
-2.69442e-05
-2.81552e-07
-3.04256e-05
-3.00058e-07
-3.21039e-05
-3.27093e-07
-3.21412e-05
-3.37101e-07
-2.97674e-05
-3.35176e-07
-2.59149e-05
-3.0726e-07
-2.91058e-05
-3.0617e-07
-2.98622e-05
-3.5013e-07
-2.54366e-05
-2.94171e-07
-2.99115e-05
-2.80032e-07
-3.15103e-05
-4.06016e-07
-3.23856e-05
-3.1277e-07
-3.63393e-05
-4.38587e-07
-3.07724e-05
-3.7497e-07
-2.72975e-05
-3.5763e-07
-2.55773e-05
-3.73088e-07
-2.86496e-05
-3.75489e-07
-3.44191e-05
-4.0232e-07
-3.26039e-05
-5.09377e-07
-3.45288e-05
-5.76146e-07
-3.46121e-05
-6.05361e-07
-3.03866e-05
-6.09468e-07
-3.21358e-05
-7.49551e-07
-3.51189e-05
-7.91704e-07
-3.54369e-05
-7.90074e-07
-3.14361e-05
-6.51977e-07
-3.08167e-05
-2.92902e-07
-3.23364e-05
5.96997e-07
-2.54225e-05
1.01927e-06
-2.02074e-05
8.23753e-07
-1.77725e-05
7.87868e-07
-1.5331e-05
3.5134e-07
-1.62598e-05
2.5868e-07
-1.8321e-05
1.00789e-07
-1.5055e-05
4.80493e-08
-1.41415e-05
4.65937e-08
-1.47741e-05
1.65849e-08
-1.52434e-05
1.70821e-08
-1.5745e-05
-1.9575e-08
-1.38601e-05
-6.48036e-09
-1.45079e-05
-3.30658e-08
-1.25997e-05
-3.51255e-08
-1.16136e-05
-2.97825e-08
-1.0989e-05
-4.34285e-08
-1.08974e-05
-1.21782e-08
-1.03612e-05
-3.69743e-08
-7.88441e-06
2.72639e-09
-7.58174e-06
-6.10331e-09
-7.78817e-06
-3.49082e-08
-8.33874e-06
-4.81622e-08
-7.70507e-06
-5.12916e-08
-6.64686e-06
-3.25099e-08
-6.02125e-06
-2.14646e-08
-5.77574e-06
-1.97475e-08
-5.92411e-06
-2.31699e-08
-5.45328e-06
-9.66348e-09
-4.90731e-06
-1.97695e-08
-4.19805e-06
-3.13321e-08
-3.21279e-06
-1.73897e-08
-2.48048e-06
-1.20842e-08
-2.07132e-06
-9.31524e-09
-1.82402e-06
-2.59651e-08
-1.3104e-06
-3.14284e-08
-8.70306e-07
-4.9507e-08
-3.98636e-08
-3.0165e-05
-1.63243e-06
-2.74436e-05
-1.04242e-06
-2.68503e-05
-1.00226e-06
-2.50693e-05
-7.14623e-07
-3.14705e-05
-5.9818e-07
-3.34601e-05
-5.06081e-07
-3.00476e-05
-4.46406e-07
-3.1819e-05
-3.24983e-07
-2.94534e-05
-2.61802e-07
-2.67804e-05
-2.29297e-07
-3.20523e-05
-2.12561e-07
-3.12296e-05
-2.54899e-07
-2.8917e-05
-2.12633e-07
-2.8231e-05
-2.31886e-07
-2.96966e-05
-1.79204e-07
-3.40824e-05
-2.50129e-07
-2.82799e-05
-2.4159e-07
-2.63696e-05
-1.97223e-07
-2.83206e-05
-2.43685e-07
-3.05833e-05
-2.52112e-07
-3.14419e-05
-2.83561e-07
-2.91176e-05
-2.52175e-07
-3.23925e-05
-2.55846e-07
-3.24302e-05
-2.70823e-07
-2.59728e-05
-2.70267e-07
-2.48933e-05
-2.15004e-07
-2.85636e-05
-2.24036e-07
-2.93036e-05
-2.82891e-07
-3.08728e-05
-2.24399e-07
-3.45338e-05
-2.43032e-07
-3.09246e-05
-2.34794e-07
-3.09506e-05
-2.71517e-07
-3.2698e-05
-3.11395e-07
-2.87358e-05
-3.01787e-07
-2.74245e-05
-2.4772e-07
-2.87905e-05
-2.68215e-07
-2.74804e-05
-3.14108e-07
-2.75117e-05
-2.92019e-07
-2.6919e-05
-2.99411e-07
-2.57803e-05
-3.04288e-07
-2.69845e-05
-2.92879e-07
-2.76439e-05
-2.8035e-07
-2.64441e-05
-3.22011e-07
-2.53453e-05
-3.28887e-07
-2.90832e-05
-2.60001e-07
-3.14103e-05
-3.45739e-07
-3.22913e-05
-2.83566e-07
-3.41715e-05
-3.69826e-07
-3.15069e-05
-3.04614e-07
-3.32943e-05
-3.54887e-07
-3.4287e-05
-3.40505e-07
-2.86108e-05
-4.08115e-07
-2.79881e-05
-3.52136e-07
-3.54611e-05
-4.05817e-07
-3.26587e-05
-5.1687e-07
-2.81797e-05
-4.24822e-07
-3.19994e-05
-4.95726e-07
-3.30076e-05
-6.62436e-07
-2.92294e-05
-6.80504e-07
-2.68385e-05
-5.85277e-07
-2.69691e-05
-4.50365e-07
-2.83516e-05
-3.32995e-07
-3.3133e-05
1.04415e-07
-2.99635e-05
8.8489e-07
-2.20268e-05
9.5908e-07
-2.06424e-05
7.44883e-07
-1.71831e-05
3.63532e-07
-1.76657e-05
2.63995e-07
-1.54761e-05
1.08514e-07
-1.46578e-05
6.28002e-08
-1.43427e-05
5.86237e-08
-1.47825e-05
6.14481e-08
-1.50557e-05
2.54588e-08
-1.57098e-05
-1.06646e-08
-1.36985e-05
-1.54846e-08
-1.29333e-05
7.09893e-11
-1.29847e-05
-4.17829e-08
-1.03451e-05
-1.35016e-08
-1.11025e-05
-1.29933e-08
-1.10339e-05
-5.19105e-09
-1.04382e-05
-1.30163e-08
-1.19106e-05
-5.28555e-09
-9.67872e-06
-1.64024e-08
-7.47491e-06
2.47503e-08
-6.89164e-06
3.29243e-08
-6.294e-06
1.78101e-08
-6.09561e-06
3.30944e-08
-5.80924e-06
3.07514e-08
-5.21437e-06
3.20892e-08
-5.56429e-06
2.14496e-08
-6.03402e-06
1.73925e-09
-4.56189e-06
-8.07145e-09
-3.59965e-06
7.23089e-09
-3.19257e-06
2.02777e-08
-2.77969e-06
2.01982e-09
-2.46592e-06
1.20841e-08
-2.00605e-06
1.97742e-08
-1.44635e-06
2.93624e-08
-8.27384e-07
2.15819e-08
1.19431e-08
-3.46657e-05
-1.23909e-06
-3.45231e-05
-9.79256e-07
-3.24951e-05
-9.21692e-07
-2.99403e-05
-6.99865e-07
-2.528e-05
-4.26717e-07
-2.79446e-05
-3.25147e-07
-3.12043e-05
-2.91105e-07
-2.56437e-05
-2.05828e-07
-2.57442e-05
-1.62183e-07
-2.77139e-05
-1.62192e-07
-2.92084e-05
-1.66517e-07
-3.3566e-05
-1.99428e-07
-3.57151e-05
-2.01343e-07
-3.0924e-05
-2.29617e-07
-3.09563e-05
-1.62014e-07
-3.58255e-05
-2.13144e-07
-3.18739e-05
-2.38974e-07
-3.28174e-05
-2.12115e-07
-3.70898e-05
-2.59765e-07
-3.71317e-05
-2.17669e-07
-3.38965e-05
-2.16394e-07
-3.2057e-05
-2.03038e-07
-3.04114e-05
-2.45475e-07
-3.21459e-05
-2.15451e-07
-3.21869e-05
-2.87768e-07
-2.82983e-05
-2.05649e-07
-3.22679e-05
-2.21074e-07
-3.14313e-05
-2.78173e-07
-2.58732e-05
-2.22158e-07
-2.42835e-05
-2.23008e-07
-2.8461e-05
-2.05299e-07
-3.65049e-05
-2.64016e-07
-3.65447e-05
-3.05054e-07
-3.08089e-05
-2.41043e-07
-2.72575e-05
-2.59982e-07
-3.08796e-05
-2.36125e-07
-3.35672e-05
-2.55863e-07
-3.01626e-05
-2.48883e-07
-3.0996e-05
-2.43095e-07
-3.10367e-05
-3.27941e-07
-2.68383e-05
-2.67754e-07
-2.88372e-05
-2.73727e-07
-3.69931e-05
-3.24311e-07
-3.03899e-05
-3.67056e-07
-2.75935e-05
-2.50389e-07
-2.82835e-05
-2.6269e-07
-2.90077e-05
-2.89654e-07
-2.9044e-05
-3.26627e-07
-2.90819e-05
-2.40592e-07
-2.91218e-05
-3.21896e-07
-2.98952e-05
-3.13515e-07
-3.32713e-05
-3.66499e-07
-3.00003e-05
-3.11635e-07
-3.00662e-05
-3.54086e-07
-2.87075e-05
-3.98252e-07
-2.74875e-05
-3.928e-07
-3.1945e-05
-3.98558e-07
-3.80938e-05
-4.80823e-07
-3.60118e-05
-5.35742e-07
-2.85808e-05
-5.34675e-07
-2.9972e-05
-4.71402e-07
-3.29929e-05
-7.70327e-07
-3.18806e-05
-8.0034e-07
-3.05366e-05
1.18708e-06
-2.79453e-05
1.08753e-06
-2.20158e-05
4.26389e-07
-1.83383e-05
3.98432e-07
-1.75264e-05
1.12674e-07
-1.41971e-05
8.88195e-08
-1.36484e-05
3.35639e-08
-1.61521e-05
2.44641e-08
-1.93647e-05
-5.22901e-08
-1.56219e-05
-5.364e-08
-1.40605e-05
-2.96143e-08
-1.52161e-05
-4.47429e-08
-1.24902e-05
-3.41519e-08
-1.05255e-05
-2.60954e-08
-1.00439e-05
-2.95193e-08
-1.12357e-05
-3.47183e-08
-1.09589e-05
-6.59152e-08
-9.96992e-06
-4.50388e-08
-9.41275e-06
-6.97697e-08
-8.10788e-06
-4.33149e-08
-9.44505e-06
-4.90673e-08
-8.09602e-06
-5.40616e-08
-7.04546e-06
-2.53817e-08
-7.56201e-06
-4.13419e-08
-7.22992e-06
-4.0939e-08
-7.12952e-06
-4.3393e-08
-7.03164e-06
-5.35385e-08
-5.52274e-06
-3.87209e-08
-3.97767e-06
-2.22148e-08
-3.91743e-06
-2.5322e-08
-3.57122e-06
-5.84959e-08
-2.60545e-06
-3.55602e-08
-2.46261e-06
-5.14526e-08
-2.1299e-06
-5.37809e-08
-1.67138e-06
-4.46596e-08
-9.33315e-07
-4.2281e-08
-1.73131e-08
-2.29668e-05
-8.59681e-07
-2.71922e-05
-7.01094e-07
-3.24169e-05
-7.22075e-07
-2.54196e-05
-5.41757e-07
-2.38375e-05
-3.20286e-07
-2.51543e-05
-2.38553e-07
-2.36498e-05
-1.60206e-07
-2.3286e-05
-1.22928e-07
-2.29157e-05
-9.35052e-08
-2.40394e-05
-9.76686e-08
-2.8563e-05
-1.03376e-07
-3.02263e-05
-1.26216e-07
-3.20754e-05
-1.36142e-07
-2.80119e-05
-1.56815e-07
-2.54519e-05
-1.31849e-07
-3.13189e-05
-1.4262e-07
-3.32681e-05
-1.59172e-07
-3.33225e-05
-1.5956e-07
-2.89853e-05
-1.80206e-07
-2.39872e-05
-1.3957e-07
-2.35207e-05
-1.3438e-07
-2.70169e-05
-1.61221e-07
-2.99959e-05
-1.75363e-07
-3.27094e-05
-1.74931e-07
-3.09488e-05
-1.72656e-07
-2.79087e-05
-1.49906e-07
-3.2895e-05
-1.64933e-07
-3.39504e-05
-1.82093e-07
-3.40117e-05
-1.64137e-07
-3.30675e-05
-2.09309e-07
-3.12852e-05
-1.69851e-07
-3.52562e-05
-1.91469e-07
-3.05423e-05
-1.97769e-07
-2.97924e-05
-1.87368e-07
-3.14999e-05
-1.88397e-07
-2.5817e-05
-1.76852e-07
-2.42114e-05
-1.72052e-07
-2.4255e-05
-1.94707e-07
-2.9283e-05
-1.79769e-07
-3.17798e-05
-2.22262e-07
-3.09756e-05
-1.91188e-07
-3.47927e-05
-2.42156e-07
-3.5943e-05
-2.16571e-07
-3.29196e-05
-2.5326e-07
-2.6839e-05
-1.96873e-07
-3.04248e-05
-2.17218e-07
-3.736e-05
-2.31888e-07
-2.90078e-05
-2.60553e-07
-2.76816e-05
-2.16939e-07
-3.53013e-05
-2.22504e-07
-3.64834e-05
-2.81593e-07
-2.92529e-05
-2.38898e-07
-2.86149e-05
-2.29908e-07
-3.26832e-05
-2.81352e-07
-3.3726e-05
-2.71322e-07
-3.11767e-05
-2.91933e-07
-2.90224e-05
-3.24882e-07
-2.98902e-05
-3.11598e-07
-3.1629e-05
-3.32439e-07
-2.9474e-05
-4.04739e-07
-2.64254e-05
-3.44479e-07
-2.66681e-05
-5.82749e-07
-2.91656e-05
-7.8769e-07
-3.03851e-05
3.0372e-07
-2.68445e-05
9.20816e-07
-2.26402e-05
4.24566e-07
-2.05696e-05
3.00275e-07
-1.64273e-05
1.64784e-07
-1.52058e-05
8.79323e-08
-1.59671e-05
2.80137e-08
-1.59816e-05
-2.62238e-08
-1.30938e-05
-2.96014e-08
-1.34201e-05
-4.86862e-08
-1.35324e-05
-7.71964e-08
-1.47988e-05
-9.00867e-08
-1.52532e-05
-1.24048e-07
-1.30187e-05
-9.7062e-08
-1.15419e-05
-7.45615e-08
-1.18543e-05
-6.48351e-08
-1.18143e-05
-9.20121e-08
-9.61667e-06
-6.76484e-08
-8.32501e-06
-5.13348e-08
-8.32535e-06
-5.08967e-08
-8.15772e-06
-5.82892e-08
-7.4174e-06
-3.81966e-08
-7.51851e-06
-4.43814e-08
-6.86682e-06
-4.60114e-08
-7.21331e-06
-4.11282e-08
-6.37035e-06
-6.323e-08
-5.63266e-06
-2.70422e-08
-5.84424e-06
-3.05857e-08
-4.78535e-06
2.33676e-09
-4.16435e-06
-1.53022e-08
-3.16882e-06
-2.8929e-09
-2.71601e-06
1.01561e-08
-2.21673e-06
-7.57445e-09
-1.82123e-06
-1.96039e-09
-1.53331e-06
1.60376e-08
-7.48575e-07
1.921e-08
1.10111e-09
-2.3327e-05
-2.1446e-05
-2.03142e-05
-2.16091e-05
-2.06782e-05
-2.09353e-05
-2.36995e-05
-2.32601e-05
-2.35073e-05
-2.43697e-05
-2.31728e-05
-2.46728e-05
-2.47812e-05
-2.48946e-05
-2.29624e-05
-1.98401e-05
-1.94639e-05
-2.09705e-05
-2.00709e-05
-1.80546e-05
-2.17606e-05
-2.497e-05
-2.37274e-05
-2.099e-05
-1.8841e-05
-2.0212e-05
-2.0768e-05
-1.99275e-05
-2.25154e-05
-2.37922e-05
-2.26989e-05
-2.27892e-05
-2.54309e-05
-2.35632e-05
-1.96357e-05
-2.15489e-05
-2.58463e-05
-2.5952e-05
-2.18181e-05
-2.04782e-05
-2.25194e-05
-2.26098e-05
-2.27017e-05
-2.2261e-05
-2.4644e-05
-2.53924e-05
-2.42243e-05
-3.04114e-05
-2.5718e-05
-2.39437e-05
-2.34775e-05
-2.25163e-05
-2.55298e-05
-2.38315e-05
-2.18801e-05
-2.66499e-05
-2.91276e-05
-2.63349e-05
-2.95861e-05
-2.61227e-05
-2.71384e-05
-3.0814e-05
-3.22083e-05
-3.18973e-05
-2.27249e-05
-2.25714e-05
-2.28193e-05
-2.04298e-05
-1.88436e-05
-1.83256e-05
-1.82818e-05
-1.74786e-05
-1.64311e-05
-1.48439e-05
-1.35801e-05
-1.0947e-05
-1.08352e-05
-1.22464e-05
-1.11595e-05
-9.42923e-06
-9.54737e-06
-9.02403e-06
-7.65339e-06
-8.1606e-06
-8.14941e-06
-7.31116e-06
-6.96537e-06
-6.27015e-06
-5.08252e-06
-5.13939e-06
-5.92194e-06
-5.21148e-06
-3.81454e-06
-3.46491e-06
-3.08586e-06
-2.08771e-06
-1.71107e-06
-1.67478e-06
-9.04478e-07
)
;

boundaryField
{
    inlet
    {
        type            fixedValue;
        value           uniform 0;
    }
    outlet
    {
        type            calculated;
        value           nonuniform List<scalar> 10(3.43374e-05 4.53847e-05 3.38217e-05 3.66049e-05 2.97844e-05 3.65813e-05 3.9186e-05 3.29704e-05 2.34706e-05 2.25389e-05);
    }
    walls
    {
        type            fixedValue;
        value           uniform 0;
    }
}


// ************************************************************************* //
