/*--------------------------------*- C++ -*----------------------------------*\
| =========                 |                                                 |
| \\      /  F ield         | foam-extend: Open Source CFD                    |
|  \\    /   O peration     | Version:     5.0                                |
|   \\  /    A nd           | Web:         http://www.foam-extend.org         |
|    \\/     M anipulation  |                                                 |
\*---------------------------------------------------------------------------*/
FoamFile
{
    version     2.0;
    format      ascii;
    class       surfaceScalarField;
    location    "8000";
    object      phi.water;
}
// * * * * * * * * * * * * * * * * * * * * * * * * * * * * * * * * * * * * * //

dimensions      [0 3 -1 0 0 0 0];

internalField   nonuniform List<scalar> 
1890
(
0
0
0
0
0
0
0
0
0
0
0
0
0
0
0
0
0
0
0
0
0
0
0
0
0
0
0
0
0
0
0
0
0
0
0
0
0
0
0
0
0
0
0
0
0
0
0
0
0
0
0
0
0
0
0
0
0
0
0
0
0
0
0
0
0
0
0
0
0
0
0
0
0
0
0
0
0
0
0
0
0
0
0
0
0
0
0
0
0
0
0
0
0
0
0
0
0
0
0
0
0
0
0
0
0
0
0
0
0
0
0
0
1.48769e-16
0
-2.97056e-09
-4.89723e-18
-1.48606e-06
5.93474e-11
-2.38083e-05
2.79748e-09
-4.93702e-05
9.78664e-07
-4.38532e-05
2.28651e-06
-4.68005e-05
2.0403e-06
-5.37057e-05
1.54819e-06
-4.87488e-05
7.69514e-07
-4.94785e-05
4.93428e-07
-5.17309e-05
1.38906e-07
-5.18681e-05
5.46068e-08
-5.59715e-05
-6.78558e-08
-5.73951e-05
-1.56264e-07
-5.25819e-05
-2.14829e-07
-5.38916e-05
-1.86157e-07
-5.65014e-05
-2.6586e-07
-5.1809e-05
-2.67584e-07
-5.15263e-05
-2.72787e-07
-5.26375e-05
-2.79665e-07
-5.37711e-05
-3.00956e-07
-5.65799e-05
-2.93058e-07
-5.15799e-05
-3.65952e-07
-4.74159e-05
-2.88349e-07
-4.94765e-05
-3.59042e-07
-4.90457e-05
-3.73344e-07
-5.27247e-05
-3.77001e-07
-5.53e-05
-5.18422e-07
-4.75424e-05
-4.97604e-07
-4.83342e-05
-3.91899e-07
-4.52073e-05
-5.34533e-07
-3.96741e-05
-3.91999e-07
-4.0056e-05
-4.18922e-07
-4.59255e-05
-4.09e-07
-4.90577e-05
-5.88574e-07
-4.00344e-05
-5.34663e-07
-4.03695e-05
-5.29461e-07
-4.5238e-05
-6.72887e-07
-4.19275e-05
-7.15681e-07
-3.70246e-05
-6.42382e-07
-3.44546e-05
-6.45985e-07
-3.90291e-05
-6.27059e-07
-4.36054e-05
-1.03998e-06
-1.07721e-06
0
0
0
0
0
0
0
0
0
0
0
0
0
0
0
0
0
0
0
0
0
0
0
0
0
0
0
0
0
0
0
0
0
0
0
0
0
0
0
0
0
0
0
0
0
0
0
0
0
0
0
0
0
0
0
0
0
0
0
0
0
0
0
0
0
0
0
0
0
0
0
0
0
0
0
0
0
0
0
0
0
0
0
0
0
0
0
0
0
0
0
0
0
0
0
0
0
0
0
0
0
0
0
0
0
0
0
0
0
0
0
0
1.26152e-26
0
-6.65791e-12
-2.98257e-28
-7.29781e-08
6.06877e-14
-7.18804e-06
-4.16766e-15
-4.59011e-05
7.12211e-08
-5.22373e-05
5.88633e-06
-4.90772e-05
5.55322e-06
-4.52397e-05
3.07573e-06
-5.12754e-05
1.37597e-06
-4.79476e-05
6.63727e-07
-4.73903e-05
2.36519e-07
-5.55256e-05
-4.12437e-08
-5.38331e-05
-2.28844e-07
-4.93103e-05
-3.2641e-07
-4.44635e-05
-3.19317e-07
-4.04279e-05
-3.1841e-07
-4.13977e-05
-3.01455e-07
-4.90003e-05
-3.5343e-07
-5.63146e-05
-4.7974e-07
-5.96468e-05
-5.44036e-07
-5.07761e-05
-5.82697e-07
-4.79069e-05
-5.36534e-07
-4.29361e-05
-5.39941e-07
-4.39227e-05
-4.26358e-07
-5.11186e-05
-5.76903e-07
-4.10709e-05
-5.85372e-07
-4.29674e-05
-5.48718e-07
-5.31046e-05
-6.7441e-07
-4.21015e-05
-7.34143e-07
-3.89684e-05
-5.76192e-07
-4.47925e-05
-6.62837e-07
-4.81649e-05
-6.90436e-07
-4.2514e-05
-7.95131e-07
-3.55436e-05
-6.1428e-07
-3.37304e-05
-6.65146e-07
-3.83239e-05
-6.17865e-07
-4.82728e-05
-8.45903e-07
-4.60729e-05
-1.01201e-06
-3.94832e-05
-9.25356e-07
-3.99562e-05
-8.25652e-07
-4.38735e-05
-8.40508e-07
-4.5732e-05
-1.03202e-06
-4.20185e-05
-1.09783e-06
-1.08551e-06
0
0
0
0
0
0
0
0
0
0
0
0
0
0
0
0
0
0
0
0
0
0
0
0
0
0
0
0
0
0
0
0
0
0
0
0
0
0
0
0
0
0
0
0
0
0
0
0
0
0
0
0
0
0
0
0
0
0
0
0
0
0
0
0
0
0
0
0
0
0
0
0
0
0
0
0
0
0
0
0
0
0
0
0
0
0
0
0
0
0
0
0
0
0
0
0
0
0
0
0
0
0
0
0
0
0
0
0
0
0
0
0
0
0
1.31966e-22
0
-7.53679e-11
-1.47785e-24
-3.13801e-07
-5.77616e-18
-1.33697e-05
1.42656e-10
-3.9957e-05
7.3711e-07
-4.806e-05
3.02093e-06
-4.175e-05
2.95808e-06
-3.77868e-05
1.48674e-06
-4.2035e-05
8.3146e-07
-4.61505e-05
1.64497e-07
-4.62743e-05
-1.67148e-07
-4.27483e-05
-3.3283e-07
-3.73165e-05
-3.73898e-07
-4.00485e-05
-4.15293e-07
-4.89862e-05
-5.19696e-07
-4.26065e-05
-5.98766e-07
-3.79885e-05
-4.96614e-07
-3.87056e-05
-5.05407e-07
-3.78239e-05
-5.58732e-07
-4.59038e-05
-5.43042e-07
-4.8118e-05
-8.15925e-07
-4.00102e-05
-6.58841e-07
-3.63899e-05
-5.90004e-07
-3.4788e-05
-6.02288e-07
-3.96238e-05
-5.77762e-07
-3.92518e-05
-7.07225e-07
-3.656e-05
-6.08744e-07
-4.08888e-05
-6.70245e-07
-3.95572e-05
-6.66534e-07
-3.50543e-05
-6.41197e-07
-3.56202e-05
-5.96652e-07
-3.52991e-05
-6.56362e-07
-4.04932e-05
-6.07258e-07
-4.86333e-05
-9.48061e-07
-4.2757e-05
-9.63553e-07
-4.11081e-05
-8.29867e-07
-4.28693e-05
-9.52638e-07
-4.22297e-05
-1.09054e-06
-3.54416e-05
-9.57565e-07
-3.68013e-05
-8.95436e-07
-3.89939e-05
-1.07723e-06
-3.29493e-05
-9.23299e-07
-7.62101e-07
0
0
0
0
0
0
0
0
0
0
0
0
0
0
0
0
0
0
0
0
0
0
0
0
0
0
0
0
0
0
0
0
0
0
0
0
0
0
0
0
0
0
0
0
0
0
0
0
0
0
0
0
0
0
0
0
0
0
0
0
0
0
0
0
0
0
0
0
0
0
0
0
0
0
0
0
0
0
0
0
0
0
0
0
0
0
0
0
0
0
0
0
0
0
0
0
0
0
0
0
0
0
0
0
0
0
0
0
0
0
0
0
0
0
2.19437e-36
0
-4.77286e-14
-3.55265e-38
-1.02368e-08
4.66459e-16
-2.02852e-06
5.52774e-11
-3.46344e-05
3.73786e-08
-5.22686e-05
3.01235e-06
-4.69429e-05
3.64473e-06
-4.85135e-05
2.17149e-06
-4.27711e-05
1.05181e-06
-4.16312e-05
2.7218e-07
-4.22923e-05
-7.15963e-08
-3.96565e-05
-1.81325e-07
-4.74641e-05
-2.9256e-07
-5.47148e-05
-4.82119e-07
-4.97675e-05
-5.64104e-07
-5.12499e-05
-5.56661e-07
-4.42532e-05
-6.45591e-07
-4.11522e-05
-5.38397e-07
-3.99492e-05
-6.05746e-07
-4.10198e-05
-5.89937e-07
-4.77392e-05
-6.79129e-07
-4.50163e-05
-7.95606e-07
-4.74261e-05
-7.46619e-07
-4.45333e-05
-7.59418e-07
-3.81682e-05
-6.76221e-07
-3.79777e-05
-6.66545e-07
-3.96012e-05
-7.75947e-07
-3.66807e-05
-7.9775e-07
-3.49707e-05
-6.40575e-07
-3.47414e-05
-7.05479e-07
-3.38033e-05
-5.77317e-07
-3.58633e-05
-6.50863e-07
-4.23057e-05
-6.9724e-07
-4.99257e-05
-8.20631e-07
-3.92048e-05
-8.9629e-07
-3.30166e-05
-7.21509e-07
-3.75541e-05
-8.45056e-07
-3.69936e-05
-9.68976e-07
-3.9576e-05
-9.04157e-07
-4.33879e-05
-1.06248e-06
-4.02566e-05
-9.98883e-07
-3.54117e-05
-1.01108e-06
-6.65981e-07
0
0
0
0
0
0
0
0
0
0
0
0
0
0
0
0
0
0
0
0
0
0
0
0
0
0
0
0
0
0
0
0
0
0
0
0
0
0
0
0
0
0
0
0
0
0
0
0
0
0
0
0
0
0
0
0
0
0
0
0
0
0
0
0
0
0
0
0
0
0
0
0
0
0
0
0
0
0
0
0
0
0
0
0
0
0
0
0
0
0
0
0
0
0
0
0
0
0
0
0
0
0
0
0
0
0
0
0
0
0
0
0
0
0
0
0
7.33877e-23
0
-6.51018e-11
-1.36774e-24
-2.6608e-07
1.07321e-12
-8.86282e-06
4.12356e-09
-4.22403e-05
5.46876e-07
-5.09985e-05
3.90067e-06
-4.56192e-05
2.43213e-06
-3.99426e-05
9.24426e-07
-3.66616e-05
3.29682e-07
-4.36074e-05
4.89639e-08
-4.93337e-05
-2.05649e-07
-4.00328e-05
-3.18576e-07
-3.83733e-05
-3.33673e-07
-3.92378e-05
-4.36083e-07
-4.02289e-05
-4.22338e-07
-4.5641e-05
-5.28667e-07
-4.42671e-05
-5.57942e-07
-4.67867e-05
-5.37852e-07
-4.40293e-05
-7.23394e-07
-4.4143e-05
-5.34848e-07
-5.3721e-05
-7.99814e-07
-4.48183e-05
-6.77074e-07
-3.85398e-05
-6.6937e-07
-3.67166e-05
-5.36737e-07
-4.22594e-05
-5.43311e-07
-5.26943e-05
-7.30141e-07
-4.91362e-05
-8.34406e-07
-4.88646e-05
-7.82969e-07
-4.31333e-05
-8.11836e-07
-4.17903e-05
-6.44533e-07
-4.90011e-05
-7.84207e-07
-4.08377e-05
-8.58583e-07
-3.35618e-05
-7.10666e-07
-3.26522e-05
-6.61192e-07
-3.62046e-05
-7.13021e-07
-3.74992e-05
-8.3034e-07
-3.80343e-05
-8.18614e-07
-3.64385e-05
-9.02569e-07
-3.34919e-05
-8.50275e-07
-3.73172e-05
-8.36459e-07
-4.33935e-05
-1.01366e-06
-1.06861e-06
0
0
0
0
0
0
0
0
0
0
0
0
0
0
0
0
0
0
0
0
0
0
0
0
0
0
0
0
0
0
0
0
0
0
0
0
0
0
0
0
0
0
0
0
0
0
0
0
0
0
0
0
0
0
0
0
0
0
0
0
0
0
0
0
0
0
0
0
0
0
0
0
0
0
0
0
0
0
0
0
0
0
0
0
0
0
0
0
0
0
0
0
0
0
0
0
0
0
0
0
0
0
0
0
0
0
0
0
0
0
0
0
0
0
0
0
0
0
7.95879e-17
0
-1.7475e-09
-3.7486e-17
-1.14363e-06
-1.65819e-10
-1.87306e-05
-3.33648e-08
-3.79588e-05
-2.12608e-07
-3.87232e-05
5.04442e-07
-3.66777e-05
6.9691e-07
-3.53286e-05
3.72673e-07
-4.04397e-05
1.8749e-07
-4.67736e-05
-1.0933e-07
-4.00116e-05
-2.77829e-07
-4.02538e-05
-2.77634e-07
-4.31061e-05
-3.91561e-07
-4.67923e-05
-4.17972e-07
-4.92274e-05
-5.71814e-07
-4.5247e-05
-5.78219e-07
-4.9077e-05
-5.44482e-07
-4.37065e-05
-7.57583e-07
-4.25889e-05
-5.5593e-07
-4.12539e-05
-6.76891e-07
-4.34799e-05
-6.08333e-07
-4.19829e-05
-7.22447e-07
-3.41021e-05
-5.60968e-07
-3.47082e-05
-5.70518e-07
-3.77915e-05
-5.39208e-07
-4.252e-05
-6.25654e-07
-4.11155e-05
-6.79012e-07
-3.79849e-05
-6.17566e-07
-3.68297e-05
-6.15506e-07
-3.83924e-05
-5.94697e-07
-4.21766e-05
-6.65421e-07
-4.18253e-05
-7.78256e-07
-4.14557e-05
-7.48836e-07
-3.88354e-05
-7.59044e-07
-3.40692e-05
-7.36498e-07
-3.15364e-05
-7.07675e-07
-3.41024e-05
-6.8941e-07
-3.79355e-05
-8.0071e-07
-4.1734e-05
-7.9883e-07
-4.62085e-05
-1.01772e-06
-1.14767e-06
0
0
0
0
0
0
0
0
0
0
0
0
0
0
0
0
0
0
0
0
0
0
0
0
0
0
0
0
0
0
0
0
0
0
0
0
0
0
0
0
0
0
0
0
0
0
0
0
0
0
0
0
0
0
0
0
0
0
0
0
0
0
0
0
0
0
0
0
0
0
0
0
0
0
0
0
0
0
0
0
0
0
0
0
0
0
0
0
0
0
0
0
0
0
0
0
0
0
0
0
0
0
0
0
0
0
0
0
0
0
0
0
0
0
0
0
0
0
7.17512e-16
-1.12614e-45
-4.16403e-09
-5.20431e-15
-1.55827e-06
-5.19645e-10
-3.17849e-05
-4.68376e-08
-3.89492e-05
-3.70674e-08
-4.54409e-05
2.69233e-07
-4.05489e-05
7.88129e-07
-3.97583e-05
3.92733e-07
-4.20077e-05
1.95369e-07
-3.91448e-05
-7.50016e-08
-3.91726e-05
-2.04448e-07
-4.00244e-05
-2.70318e-07
-4.31117e-05
-3.64592e-07
-4.52963e-05
-4.69701e-07
-4.92783e-05
-4.67477e-07
-4.38507e-05
-6.27034e-07
-4.40239e-05
-4.89724e-07
-4.4873e-05
-6.14806e-07
-3.77424e-05
-5.24436e-07
-4.25104e-05
-5.28313e-07
-4.33679e-05
-7.32381e-07
-4.33013e-05
-5.69478e-07
-5.10604e-05
-7.64979e-07
-4.26121e-05
-7.13251e-07
-3.51064e-05
-6.10858e-07
-3.42012e-05
-6.35502e-07
-3.33379e-05
-5.46494e-07
-3.46117e-05
-5.80708e-07
-3.51279e-05
-6.01185e-07
-3.4157e-05
-5.82559e-07
-4.00613e-05
-6.13742e-07
-4.54403e-05
-8.33637e-07
-3.73264e-05
-7.2043e-07
-3.3734e-05
-6.32014e-07
-3.41155e-05
-7.45557e-07
-3.52627e-05
-6.90295e-07
-3.73393e-05
-8.21835e-07
-3.76655e-05
-9.04957e-07
-3.70183e-05
-9.19439e-07
-3.54212e-05
-9.56928e-07
-9.03736e-07
0
0
0
0
0
0
0
0
0
0
0
0
0
0
0
0
0
0
0
0
0
0
0
0
0
0
0
0
0
0
0
0
0
0
0
0
0
0
0
0
0
0
0
0
0
0
0
0
0
0
0
0
0
0
0
0
0
0
0
0
0
0
0
0
0
0
0
0
0
0
0
0
0
0
0
0
0
0
0
0
0
0
0
0
0
0
0
0
0
0
0
0
0
0
0
0
0
0
0
0
0
0
0
0
0
0
0
0
0
0
0
0
0
0
0
0
1.14625e-34
0
-1.0082e-13
-3.93458e-36
-1.36001e-08
3.26433e-15
-2.33726e-06
3.421e-10
-3.04262e-05
4.45791e-08
-5.00203e-05
1.60705e-06
-5.13848e-05
1.82145e-06
-4.23274e-05
8.72247e-07
-4.14775e-05
5.05987e-07
-4.0717e-05
1.63003e-07
-3.57533e-05
5.4812e-09
-3.65786e-05
-9.16499e-08
-4.54785e-05
-1.72204e-07
-5.56879e-05
-3.34576e-07
-4.62414e-05
-4.29101e-07
-4.3923e-05
-3.99284e-07
-4.89102e-05
-4.90707e-07
-4.14597e-05
-5.62752e-07
-3.69399e-05
-4.39304e-07
-3.68764e-05
-4.29795e-07
-4.36811e-05
-4.13401e-07
-4.33757e-05
-6.41015e-07
-4.23411e-05
-4.66298e-07
-4.09648e-05
-5.87007e-07
-3.81267e-05
-4.6248e-07
-4.65555e-05
-5.68116e-07
-4.14626e-05
-5.82081e-07
-3.93778e-05
-4.78028e-07
-4.44634e-05
-5.6773e-07
-4.54086e-05
-5.77208e-07
-4.77644e-05
-7.10546e-07
-5.0341e-05
-6.54515e-07
-4.18024e-05
-8.26359e-07
-3.42077e-05
-5.39618e-07
-3.91923e-05
-5.45951e-07
-3.85658e-05
-6.96472e-07
-3.54991e-05
-5.79696e-07
-4.0736e-05
-7.30406e-07
-4.5031e-05
-8.36551e-07
-4.71558e-05
-1.01457e-06
-4.32904e-05
-9.93603e-07
-1.02472e-06
0
0
0
0
0
0
0
0
0
0
0
0
0
0
0
0
0
0
0
0
0
0
0
0
0
0
0
0
0
0
0
0
0
0
0
0
0
0
0
0
0
0
0
0
0
0
0
0
0
0
0
0
0
0
0
0
0
0
0
0
0
0
0
0
0
0
0
0
0
0
0
0
0
0
0
0
0
0
0
0
0
0
0
0
0
0
0
0
0
0
0
0
0
0
0
0
0
0
0
0
0
0
0
0
0
0
0
0
0
0
0
0
0
0
0
0
0
0
6.33764e-22
0
-1.06708e-10
-1.66405e-23
-2.73342e-07
2.15871e-12
-1.22555e-05
2.17883e-09
-4.86736e-05
2.96451e-07
-4.28591e-05
1.4954e-06
-4.51359e-05
4.78076e-07
-4.09473e-05
2.87197e-07
-3.69956e-05
1.11635e-07
-3.59557e-05
3.26443e-08
-4.06856e-05
-4.11078e-08
-4.1315e-05
-1.68605e-07
-3.60498e-05
-1.65056e-07
-3.87043e-05
-2.00141e-07
-4.06261e-05
-2.48888e-07
-4.65093e-05
-2.93756e-07
-4.91138e-05
-4.03138e-07
-4.37607e-05
-3.66065e-07
-4.0412e-05
-3.63933e-07
-4.36985e-05
-3.36065e-07
-4.4695e-05
-4.46077e-07
-3.82562e-05
-3.87177e-07
-3.49006e-05
-3.86929e-07
-3.72857e-05
-3.42014e-07
-3.79263e-05
-4.32383e-07
-3.7009e-05
-3.77906e-07
-3.95455e-05
-4.14783e-07
-3.83693e-05
-4.31938e-07
-4.35231e-05
-4.62082e-07
-3.97261e-05
-6.01122e-07
-3.96525e-05
-4.71799e-07
-4.24362e-05
-6.8748e-07
-3.89879e-05
-5.39611e-07
-3.66212e-05
-5.89891e-07
-3.23688e-05
-5.26233e-07
-3.27042e-05
-5.58311e-07
-3.22351e-05
-6.09372e-07
-3.57756e-05
-6.47941e-07
-3.69544e-05
-9.19561e-07
-3.4648e-05
-7.74107e-07
-8.67415e-07
0
0
0
0
0
0
0
0
0
0
0
0
0
0
0
0
0
0
0
0
0
0
0
0
0
0
0
0
0
0
0
0
0
0
0
0
0
0
0
0
0
0
0
0
0
0
0
0
0
0
0
0
0
0
0
0
0
0
0
1.31786e-26
-1.20751e-11
-7.23223e-08
-7.71166e-06
-2.96645e-05
-4.02933e-05
-4.33959e-05
-4.39007e-05
-4.25604e-05
-4.10088e-05
-4.23142e-05
-4.34865e-05
-4.36259e-05
-4.2254e-05
-4.00148e-05
-3.79021e-05
-3.20315e-05
-3.38001e-05
-3.93847e-05
-3.73642e-05
-3.31338e-05
-3.58007e-05
-3.48239e-05
-3.18759e-05
-3.58566e-05
-3.77053e-05
-3.57947e-05
-3.67619e-05
-3.48718e-05
-3.11837e-05
-3.49953e-05
-4.33942e-05
-4.07248e-05
-3.39312e-05
-3.64844e-05
-3.61486e-05
-3.12441e-05
-3.68812e-05
-4.46908e-05
-4.04282e-05
)
;

boundaryField
{
    inlet
    {
        type            fixedValue;
        value           nonuniform List<scalar> 10(-5e-05 -5e-05 -5e-05 -5e-05 -5e-05 -5e-05 -5e-05 -5e-05 -5e-05 -5e-05);
    }
    outlet
    {
        type            calculated;
        value           uniform 0;
    }
    walls
    {
        type            fixedValue;
        value           uniform 0;
    }
}


// ************************************************************************* //
