/*--------------------------------*- C++ -*----------------------------------*\
| =========                 |                                                 |
| \\      /  F ield         | foam-extend: Open Source CFD                    |
|  \\    /   O peration     | Version:     5.0                                |
|   \\  /    A nd           | Web:         http://www.foam-extend.org         |
|    \\/     M anipulation  |                                                 |
\*---------------------------------------------------------------------------*/
FoamFile
{
    version     2.0;
    format      ascii;
    class       surfaceScalarField;
    location    "8000";
    object      phi.gas;
}
// * * * * * * * * * * * * * * * * * * * * * * * * * * * * * * * * * * * * * //

dimensions      [0 3 -1 0 0 0 0];

internalField   nonuniform List<scalar> 
1890
(
2.10868e-47
-1.02786e-23
3.35198e-41
-3.47556e-21
2.63714e-38
-2.5482e-18
8.48308e-38
-5.87885e-17
1.33899e-35
-7.44212e-17
9.67853e-34
-5.69508e-16
7.28229e-33
-2.39448e-15
3.39518e-30
-2.69613e-15
1.49099e-28
-1.12823e-14
5.47832e-29
-2.91728e-14
1.88132e-23
-4.65942e-14
8.84718e-19
-1.7108e-12
2.79041e-16
-1.80072e-11
5.95235e-15
-7.52567e-11
2.21281e-14
-1.43748e-10
-1.33823e-12
-1.15424e-10
-5.19337e-13
-3.72584e-10
-1.82876e-12
-2.75622e-10
-1.50584e-12
-3.78327e-10
-4.26173e-12
-3.47041e-10
-6.27091e-12
-6.19739e-10
-2.4325e-10
-7.03878e-10
-5.01092e-09
-8.57191e-09
-3.56026e-08
-3.17585e-08
-8.25326e-08
-5.46366e-08
-1.04671e-07
-6.12047e-08
-1.10523e-07
-6.20243e-08
-1.39466e-07
-7.48235e-08
-3.80366e-07
-6.58383e-08
-4.28945e-07
-9.43002e-08
-2.55968e-07
-6.30832e-08
-3.80865e-07
-9.28427e-08
-4.44835e-07
-8.44775e-08
-6.08159e-07
-8.64278e-08
-4.2332e-07
-8.37305e-08
-4.13827e-07
-6.80314e-08
-5.40774e-07
-8.77458e-08
-2.58255e-06
-7.10106e-08
-1.49274e-05
-7.62617e-08
-2.97964e-05
-9.09343e-09
-3.68502e-05
3.56154e-07
-3.45877e-05
9.35311e-07
-3.79843e-05
9.77232e-07
-3.92581e-05
1.17243e-06
-3.56345e-05
1.28039e-06
-4.42485e-05
1.21099e-06
-4.7602e-05
1.63804e-06
-4.04861e-05
1.56074e-06
-4.45291e-05
1.52641e-06
-4.65306e-05
1.48932e-06
-4.40182e-05
1.36197e-06
-4.37796e-05
1.32452e-06
-4.46458e-05
1.62697e-06
-5.16453e-05
1.27806e-06
-5.11052e-05
1.42882e-06
-5.49568e-05
1.27247e-06
-5.71434e-05
1.47777e-06
-5.4593e-05
1.22965e-06
-6.11329e-05
6.42933e-07
-6.38352e-05
2.17012e-08
-6.17684e-05
2.75953e-06
-5.36506e-05
4.40683e-06
-5.57919e-05
3.68568e-06
-6.66286e-05
3.09309e-06
-6.11842e-05
2.46465e-06
-6.26918e-05
2.60154e-06
-6.64932e-05
1.99146e-06
-6.76639e-05
2.37471e-06
-7.42019e-05
2.40309e-06
-7.74013e-05
2.40482e-06
-7.21143e-05
2.23593e-06
-7.53456e-05
2.09269e-06
-8.04471e-05
2.11889e-06
-7.52769e-05
2.36848e-06
-7.641e-05
2.73802e-06
-7.97303e-05
3.05848e-06
-8.32068e-05
3.22855e-06
-8.95609e-05
2.78559e-06
-8.33843e-05
3.32369e-06
-7.85515e-05
2.49711e-06
-8.3922e-05
3.47469e-06
-8.52503e-05
3.33909e-06
-9.40793e-05
2.85238e-06
-0.000101202
4.09536e-06
-8.92848e-05
4.18428e-06
-9.35441e-05
3.12372e-06
-8.96926e-05
4.18165e-06
-8.12449e-05
3.98638e-06
-8.44431e-05
4.67235e-06
-0.00010014
3.95158e-06
-0.000110032
4.52616e-06
-9.29113e-05
4.29285e-06
-9.72962e-05
5.33191e-06
-0.00011297
6.57737e-06
-0.000108539
6.37007e-06
-9.98127e-05
5.98057e-06
-9.68475e-05
6.95072e-06
-0.000115151
7.60522e-06
-0.00013413
9.72708e-06
8.64392e-06
1.85405e-16
-2.27824e-11
1.069e-14
-5.61405e-11
-2.86774e-14
-1.90875e-10
-7.29792e-14
-2.45838e-10
-6.29221e-13
-1.7236e-10
-2.1562e-12
-2.79751e-10
-2.75421e-12
-3.3951e-10
-1.19473e-11
-5.03372e-10
-2.90664e-11
-7.38443e-10
-3.88018e-11
-1.23958e-09
-2.45569e-09
-2.61043e-09
-2.40023e-08
-1.91371e-08
-7.89054e-08
-6.85825e-08
-1.34985e-07
-7.62405e-08
-9.82986e-08
-9.88271e-08
-3.08675e-07
-9.13551e-08
-2.24276e-07
-8.93567e-08
-3.00001e-07
-9.71512e-08
-2.74335e-07
-9.4658e-08
-4.83584e-07
-8.81031e-08
-6.12717e-07
-1.05495e-07
-1.09425e-05
-9.71965e-08
-3.80443e-05
-6.51186e-08
-5.03806e-05
3.39061e-07
-4.92969e-05
9.94414e-07
-4.76066e-05
1.36789e-06
-5.12357e-05
1.78852e-06
-5.23351e-05
1.86312e-06
-5.8411e-05
2.07569e-06
-5.6457e-05
2.28582e-06
-5.67733e-05
1.61989e-06
-6.65364e-05
2.0696e-06
-6.44774e-05
2.04467e-06
-6.42705e-05
2.09967e-06
-5.65953e-05
1.98957e-06
-5.81314e-05
2.25205e-06
-5.92827e-05
2.36776e-06
-5.67348e-05
1.93994e-06
-6.49676e-05
1.8146e-06
-6.30726e-05
2.29601e-06
-6.28206e-05
2.39429e-06
-6.66747e-05
2.25405e-06
-6.45138e-05
2.7694e-06
-7.38296e-05
2.21083e-06
-7.88207e-05
2.63287e-06
-8.22319e-05
2.9182e-06
-9.68052e-05
3.16175e-06
-0.00010142
2.98682e-06
-9.06591e-05
3.02741e-06
-8.01338e-05
3.05638e-06
-7.53575e-05
3.09809e-06
-8.67099e-05
3.05454e-06
-8.3051e-05
3.28151e-06
-7.12433e-05
2.50432e-06
-7.34725e-05
2.40032e-06
-7.74707e-05
2.26516e-06
-8.80561e-05
2.51445e-06
-7.96134e-05
2.04072e-06
-6.91065e-05
6.27119e-07
-7.41602e-05
-1.87112e-06
-9.04227e-05
7.39892e-07
-0.000113111
1.22745e-05
-0.000111395
1.16185e-05
-0.00010321
9.11514e-06
-0.000116766
5.76512e-06
-0.000110535
5.16832e-06
-0.000109325
4.55312e-06
-0.000129365
4.75268e-06
-0.000126372
4.58808e-06
-0.000116647
3.97645e-06
-0.000105956
3.61445e-06
-9.713e-05
4.24121e-06
-0.000100216
4.44156e-06
-0.000119741
3.85148e-06
-0.00013909
4.45087e-06
-0.000148957
4.42339e-06
-0.000128168
4.66444e-06
-0.000122313
5.40227e-06
-0.000110711
5.07769e-06
-0.000114538
4.25718e-06
-0.000134773
4.76578e-06
-0.000109459
4.63573e-06
-0.000115873
4.96985e-06
-0.000144794
5.02727e-06
-0.000116046
5.65154e-06
-0.000108728
5.23893e-06
-0.000126366
5.46094e-06
-0.00013759
5.39786e-06
-0.000122855
6.35691e-06
-0.000103978
5.40756e-06
-9.97625e-05
7.09396e-06
-0.000114643
6.7409e-06
-0.000145949
7.45428e-06
-0.000140652
8.17734e-06
-0.00012168
8.10111e-06
-0.000124229
7.79208e-06
-0.000137388
7.47063e-06
-0.000144141
9.81233e-06
-0.000132844
8.78292e-06
7.62426e-06
-5.77133e-08
-7.55687e-08
-1.7402e-07
-9.45073e-08
-2.1918e-07
-7.75437e-08
-1.43328e-07
-8.86942e-08
-2.20798e-07
-1.09694e-07
-2.64862e-07
-1.10786e-07
-4.10546e-07
-1.06421e-07
-6.24107e-07
-9.35089e-08
-9.64816e-07
-9.52936e-08
-2.88812e-06
-1.12658e-07
-2.4699e-05
-1.298e-07
-6.3673e-05
1.46342e-07
-6.36021e-05
1.31813e-06
-6.78517e-05
1.87796e-06
-7.06576e-05
2.41881e-06
-6.69898e-05
2.69623e-06
-6.90695e-05
2.40444e-06
-7.10336e-05
2.80207e-06
-6.76195e-05
2.82076e-06
-7.15154e-05
2.85001e-06
-7.52202e-05
2.49909e-06
-7.16086e-05
2.85207e-06
-7.17125e-05
2.50511e-06
-6.8462e-05
2.47034e-06
-6.68418e-05
2.90295e-06
-7.97986e-05
2.84582e-06
-8.9779e-05
3.75082e-06
-9.65391e-05
3.87328e-06
-0.000103894
3.49087e-06
-8.21498e-05
3.38586e-06
-7.59643e-05
3.37353e-06
-8.24106e-05
3.88151e-06
-8.34435e-05
3.21542e-06
-8.0586e-05
3.94182e-06
-9.20662e-05
3.55192e-06
-0.000106638
4.08612e-06
-9.39219e-05
3.62595e-06
-8.22049e-05
3.72508e-06
-8.89956e-05
3.49899e-06
-0.000114399
3.22353e-06
-0.000102929
3.74016e-06
-0.00010395
3.74643e-06
-9.93585e-05
3.83482e-06
-8.49958e-05
3.13145e-06
-0.00010111
3.97315e-06
-0.000113558
3.73055e-06
-0.000102716
4.36238e-06
-9.61377e-05
3.74646e-06
-0.00010434
3.75966e-06
-0.000117118
3.62964e-06
-0.0001251
4.81388e-06
-0.000118701
3.95679e-06
-0.000104483
3.81885e-06
-9.54602e-05
3.27296e-06
-9.37128e-05
2.97544e-06
-0.000111301
3.2338e-06
-0.000136672
2.79833e-06
-0.000141328
2.67103e-06
-0.000121379
1.24599e-06
-0.000119607
-1.04449e-07
-0.000141585
-3.64759e-08
-0.000139275
8.1991e-06
-0.000140312
1.63923e-05
-0.000129856
1.46403e-05
-0.000113816
9.62284e-06
-0.000125563
8.27207e-06
-0.000138302
6.08835e-06
-0.000138438
6.18107e-06
-0.000127945
5.3534e-06
-0.000111508
5.00849e-06
-0.000119622
5.70799e-06
-0.00014683
6.24023e-06
-0.000128192
6.33445e-06
-0.000114387
5.78804e-06
-0.000116836
4.96232e-06
-0.000114391
5.44101e-06
-0.000139185
4.78122e-06
-0.000146577
6.94602e-06
-0.000122255
6.08154e-06
-0.00011152
5.81188e-06
-0.000106859
6.09553e-06
-0.000121989
5.35286e-06
-0.000121241
5.95423e-06
-0.000113154
5.49466e-06
-0.000126879
6.13553e-06
-0.000123076
5.87193e-06
-0.000109301
5.92676e-06
-0.000111266
5.52854e-06
-0.000110486
6.16331e-06
-0.000126973
6.29174e-06
-0.000152856
9.12139e-06
-0.000134618
8.88139e-06
-0.000129538
6.37481e-06
-0.000135236
6.87817e-06
-0.000133371
8.09999e-06
-0.000112018
7.26231e-06
-0.000116408
8.28062e-06
-0.000123349
9.17835e-06
-0.000104233
8.89796e-06
7.71512e-06
-7.52782e-05
1.56393e-07
-6.55371e-05
7.00655e-07
-6.17974e-05
1.01525e-06
-7.07549e-05
1.5019e-06
-7.93689e-05
1.97571e-06
-7.8514e-05
2.33953e-06
-7.23111e-05
2.69723e-06
-6.91068e-05
2.57912e-06
-7.63127e-05
2.5293e-06
-9.19103e-05
3.21463e-06
-9.70218e-05
3.12833e-06
-8.69255e-05
3.7501e-06
-8.26371e-05
4.03838e-06
-8.82754e-05
4.10275e-06
-0.000102356
4.02354e-06
-0.000100762
4.8413e-06
-9.95486e-05
4.02702e-06
-0.000109682
3.80189e-06
-0.000114436
4.03789e-06
-9.78508e-05
4.66682e-06
-9.66628e-05
4.01604e-06
-0.000102725
4.78628e-06
-8.76941e-05
4.17983e-06
-9.49583e-05
3.59089e-06
-0.000103112
4.87115e-06
-0.00010681
4.2205e-06
-0.000127893
4.46214e-06
-0.000111427
4.88594e-06
-9.451e-05
4.49347e-06
-0.000107505
4.64983e-06
-0.000132002
4.36575e-06
-0.000114919
5.69245e-06
-0.000115866
4.22786e-06
-0.000134809
5.02354e-06
-0.00012409
4.27147e-06
-0.000115022
5.33966e-06
-0.000122225
4.84785e-06
-0.00014283
5.02891e-06
-0.000117226
5.6539e-06
-0.000101936
3.76521e-06
-0.000121997
4.39504e-06
-0.000119427
4.41449e-06
-0.000101426
3.82075e-06
-0.000117696
4.25954e-06
-0.000118244
5.28434e-06
-0.00011593
4.3347e-06
-0.000125907
5.05386e-06
-0.000117031
4.3412e-06
-0.000106857
4.94288e-06
-0.000121125
4.68936e-06
-0.000128141
4.97111e-06
-0.000113342
4.55951e-06
-0.000111081
4.10815e-06
-0.000104164
4.28711e-06
-0.000120149
3.84659e-06
-0.000123556
3.78812e-06
-0.000130589
3.33773e-06
-0.000146944
3.29953e-06
-0.000139291
1.8191e-06
-0.000144658
1.34022e-06
-0.000130984
6.24601e-07
-0.000138068
2.58392e-06
-0.000174863
1.66367e-05
-0.000162209
1.82813e-05
-0.000162995
1.42306e-05
-0.000144241
1.02787e-05
-0.000137078
6.80764e-06
-0.000139103
6.31862e-06
-0.000129375
7.18347e-06
-0.00015407
6.26522e-06
-0.000177557
6.12545e-06
-0.00016123
6.26381e-06
-0.000165663
5.82272e-06
-0.000143054
6.77355e-06
-0.000132587
6.16636e-06
-0.00012868
6.20573e-06
-0.000131767
6.40807e-06
-0.000153357
5.94216e-06
-0.000144529
7.48324e-06
-0.000152131
7.15754e-06
-0.000142847
6.67941e-06
-0.000122292
5.8059e-06
-0.000121581
5.60369e-06
-0.000126744
7.09684e-06
-0.000117369
7.68522e-06
-0.000111763
6.56696e-06
-0.000110957
7.63088e-06
-0.000107807
6.16931e-06
-0.000114256
7.50836e-06
-0.000134605
7.95956e-06
-0.00015869
7.3839e-06
-0.000124529
7.04394e-06
-0.000104714
6.08135e-06
-0.000118987
7.08292e-06
-0.000117122
7.3398e-06
-0.000125166
7.48544e-06
-0.000137128
7.98621e-06
-0.000127197
7.86255e-06
-0.000111936
9.77451e-06
1.01179e-05
-0.000100094
-5.60015e-08
-9.23716e-05
6.12426e-07
-8.96099e-05
1.22252e-06
-9.37063e-05
1.93918e-06
-9.614e-05
2.78217e-06
-0.000104274
3.29204e-06
-0.000105067
3.49108e-06
-9.36146e-05
4.23236e-06
-9.91515e-05
3.65526e-06
-0.000102591
4.11153e-06
-0.00010641
3.94926e-06
-0.000130931
5.45717e-06
-0.000136268
5.13593e-06
-0.000121616
5.77148e-06
-0.000122621
4.68728e-06
-0.000123448
5.06448e-06
-0.000101187
5.57572e-06
-9.52788e-05
5.03926e-06
-0.000110302
4.75533e-06
-0.000126832
4.82408e-06
-0.00013536
4.66941e-06
-0.000136195
5.1538e-06
-0.000118998
5.30956e-06
-0.000122992
4.96176e-06
-0.00013069
5.40671e-06
-0.000114958
5.65945e-06
-0.000112735
4.63013e-06
-0.000125552
5.01232e-06
-0.000141442
5.74958e-06
-0.0001202
6.11673e-06
-0.000120814
5.08009e-06
-0.000131405
5.77131e-06
-0.000118792
5.18745e-06
-0.000108426
5.31102e-06
-0.000122878
4.36377e-06
-0.000155169
5.21472e-06
-0.00014205
5.31842e-06
-0.00014699
5.43152e-06
-0.000131613
5.69424e-06
-0.000122287
4.84796e-06
-0.000119759
4.84491e-06
-0.000104867
4.15921e-06
-0.00011504
4.82368e-06
-0.000134143
4.72252e-06
-0.000134576
4.74954e-06
-0.000131451
5.7456e-06
-0.000122195
4.90148e-06
-0.000128858
5.44941e-06
-0.000157492
5.72047e-06
-0.000140353
5.51067e-06
-0.000133328
4.46357e-06
-0.000130207
4.69611e-06
-0.000133951
4.70587e-06
-0.000150041
5.48897e-06
-0.000131096
4.52523e-06
-0.000138512
4.45718e-06
-0.000160667
4.02673e-06
-0.000135888
3.53236e-06
-0.000140409
2.70771e-06
-0.000154262
2.87733e-06
-0.000151585
2.20889e-06
-0.000150983
2.06042e-06
-0.000145036
9.22461e-06
-0.000174931
1.76366e-05
-0.00016561
1.33005e-05
-0.000140303
9.49244e-06
-0.000126473
7.23615e-06
-0.00014823
6.27196e-06
-0.000167913
8.3977e-06
-0.000135308
7.1956e-06
-0.000128711
5.46811e-06
-0.000131091
6.61454e-06
-0.00013375
5.97617e-06
-0.000151238
7.41691e-06
-0.000146347
7.11411e-06
-0.000154014
6.5848e-06
-0.000144772
8.21633e-06
-0.00014443
5.60198e-06
-0.000175587
7.83416e-06
-0.00014617
6.44104e-06
-0.000125302
7.31784e-06
-0.000118989
5.72153e-06
-0.000136478
5.62942e-06
-0.000169924
6.65241e-06
-0.000158203
7.49315e-06
-0.000156969
7.50455e-06
-0.000138383
7.51658e-06
-0.00013371
6.52873e-06
-0.000156615
7.3313e-06
-0.000130405
8.11183e-06
-0.000106999
7.37146e-06
-0.000103918
6.95997e-06
-0.00011503
7.35081e-06
-0.000118983
7.32922e-06
-0.000120495
6.6105e-06
-0.000115353
6.97174e-06
-0.000105975
7.63278e-06
-0.000118027
8.13865e-06
-0.000137234
1.05754e-05
1.16194e-05
-0.000132111
-1.13804e-07
-0.000112125
5.16336e-07
-0.000101964
1.59713e-06
-0.000112131
2.09272e-06
-0.000121507
3.24247e-06
-0.000107382
4.45215e-06
-0.000113125
4.037e-06
-0.000116606
5.07286e-06
-0.000101521
4.94883e-06
-0.000102043
4.41593e-06
-0.000121525
4.72833e-06
-0.00012542
6.70462e-06
-0.000122721
4.92234e-06
-0.000120048
6.12616e-06
-0.000106865
4.79782e-06
-0.000124269
5.71981e-06
-0.000152908
6.36103e-06
-0.000139927
5.66536e-06
-0.00011648
5.38581e-06
-0.000104205
5.11828e-06
-0.000106927
5.10375e-06
-0.000120749
5.32978e-06
-0.000131038
5.31626e-06
-0.000128048
6.48091e-06
-0.000135648
5.23602e-06
-0.000128899
5.38416e-06
-0.000117004
4.82316e-06
-0.000129713
5.73835e-06
-0.000141247
5.45268e-06
-0.000145818
6.62987e-06
-0.000138099
6.24522e-06
-0.000131195
5.59798e-06
-0.000135106
5.88894e-06
-0.000125292
6.0265e-06
-0.000111668
4.79384e-06
-0.00011451
4.98939e-06
-0.000129539
5.06706e-06
-0.000136908
5.27682e-06
-0.000137295
5.24936e-06
-0.000127341
5.10223e-06
-0.000111028
4.65461e-06
-0.000124893
4.67176e-06
-0.000128301
5.40466e-06
-0.000109442
4.60733e-06
-0.000128883
4.4313e-06
-0.00013593
6.46099e-06
-0.000139914
4.96458e-06
-0.000157177
6.87555e-06
-0.000133267
5.73919e-06
-0.000118363
5.27434e-06
-0.000111033
5.21968e-06
-0.000124516
4.89185e-06
-0.000149735
4.77654e-06
-0.000141961
5.41052e-06
-0.000150466
5.35144e-06
-0.000150914
4.79968e-06
-0.000132546
4.06486e-06
-0.000140201
4.18698e-06
-0.00015322
3.80777e-06
-0.000154595
3.6285e-06
-0.00013711
3.72292e-06
-0.000134355
4.98362e-06
-0.000144303
9.05133e-06
-0.00013591
1.09592e-05
-0.000135283
8.92504e-06
-0.000130806
1.03522e-05
-0.000123409
7.3978e-06
-0.000139492
7.63415e-06
-0.000160779
7.36016e-06
-0.000136689
6.75549e-06
-0.000136155
6.03479e-06
-0.000145374
6.80037e-06
-0.000156838
6.82249e-06
-0.000164681
7.59161e-06
-0.000150679
7.69069e-06
-0.000162849
6.20998e-06
-0.000144723
8.24344e-06
-0.000140344
5.7954e-06
-0.000135719
6.47465e-06
-0.00014244
6.60295e-06
-0.000137414
7.24562e-06
-0.000111198
6.71962e-06
-0.000112822
7.17822e-06
-0.000122452
5.93492e-06
-0.000137441
6.28016e-06
-0.000132643
6.4096e-06
-0.000122242
6.14912e-06
-0.000118282
6.65187e-06
-0.000123026
6.43799e-06
-0.000134949
6.93057e-06
-0.000133662
8.87707e-06
-0.000132262
8.15043e-06
-0.000123734
7.20329e-06
-0.000108409
6.99295e-06
-0.000100226
6.8226e-06
-0.00010825
7.25402e-06
-0.000120298
8.55986e-06
-0.000132178
8.7476e-06
-0.000146181
9.60612e-06
9.10775e-06
-0.000119609
1.06514e-06
-0.000114749
2.18861e-06
-0.000111881
3.04103e-06
-0.000105537
3.22218e-06
-0.000132401
3.72716e-06
-0.000140786
4.39701e-06
-0.000126568
5.43228e-06
-0.000134182
5.17654e-06
-0.000124373
5.10585e-06
-0.000113234
5.13748e-06
-0.000135757
5.21097e-06
-0.000132506
6.69681e-06
-0.000122924
5.90935e-06
-0.000120217
6.62836e-06
-0.0001267
5.13512e-06
-0.000145653
7.057e-06
-0.000121047
6.64524e-06
-0.000113043
5.2443e-06
-0.000121576
6.25975e-06
-0.000131466
6.2313e-06
-0.000135324
6.77463e-06
-0.000125465
5.86036e-06
-0.000139742
5.87062e-06
-0.000140048
6.17249e-06
-0.000112276
6.22916e-06
-0.000107711
4.98824e-06
-0.000123714
5.23418e-06
-0.000127035
6.63221e-06
-0.00013397
5.24755e-06
-0.000149991
5.62245e-06
-0.000134435
5.35626e-06
-0.000134668
6.09161e-06
-0.000142391
6.8124e-06
-0.000125234
6.39257e-06
-0.00011962
5.06157e-06
-0.000125673
5.26642e-06
-0.000120045
5.96044e-06
-0.000120272
5.34533e-06
-0.000117761
5.31752e-06
-0.000112858
5.30997e-06
-0.000118208
5.05435e-06
-0.000121168
4.82569e-06
-0.000115974
5.59322e-06
-0.000111213
5.75894e-06
-0.000127681
4.55507e-06
-0.000137952
6.0797e-06
-0.000141887
4.97689e-06
-0.000150203
6.43359e-06
-0.000138545
5.18885e-06
-0.000146458
5.86311e-06
-0.000150874
5.3668e-06
-0.000125934
6.06694e-06
-0.000123235
4.85971e-06
-0.00015618
5.10344e-06
-0.000143863
5.83534e-06
-0.000124159
4.26693e-06
-0.00014101
4.4002e-06
-0.000145468
5.22259e-06
-0.000128831
4.92097e-06
-0.000118301
4.18403e-06
-0.000118876
3.79267e-06
-0.000124982
5.64335e-06
-0.000151946
6.93613e-06
-0.000159822
1.1312e-05
-0.000153907
9.88097e-06
-0.000147658
1.15404e-05
-0.000138973
7.5132e-06
-0.000146496
8.60683e-06
-0.000134935
6.50889e-06
-0.0001338
5.92222e-06
-0.000135829
6.3008e-06
-0.00014541
7.52384e-06
-0.000152136
8.01337e-06
-0.000164619
6.3942e-06
-0.000146136
7.97774e-06
-0.000145726
6.5148e-06
-0.000148278
6.56566e-06
-0.000124087
5.81673e-06
-0.00013919
5.72371e-06
-0.000141714
8.22736e-06
-0.000140932
5.92084e-06
-0.000165837
8.02696e-06
-0.000138171
6.65046e-06
-0.000113479
6.51603e-06
-0.000110295
7.20095e-06
-0.000107232
5.97134e-06
-0.000111084
6.92028e-06
-0.000112536
7.38971e-06
-0.000109202
7.56113e-06
-0.000127792
7.80205e-06
-0.000144791
9.72514e-06
-0.000118737
7.39638e-06
-0.000107118
6.57032e-06
-0.000108208
8.22336e-06
-0.00011168
6.85818e-06
-0.000118176
8.06608e-06
-0.000119158
8.92593e-06
-0.000117088
9.82382e-06
-0.000112017
9.92921e-06
9.28238e-06
-0.000155812
8.3961e-07
-0.000156026
1.96963e-06
-0.000147556
3.35314e-06
-0.000136159
3.84573e-06
-0.000115054
3.42437e-06
-0.000127141
3.92094e-06
-0.000141852
4.79763e-06
-0.000116501
4.50383e-06
-0.000116865
4.28183e-06
-0.000125781
4.58751e-06
-0.000132539
4.87883e-06
-0.000152327
5.89016e-06
-0.0001621
5.83995e-06
-0.00014037
6.67485e-06
-0.000140514
4.55666e-06
-0.00016263
5.84646e-06
-0.000144691
6.43703e-06
-0.000148952
5.59938e-06
-0.000168335
6.61116e-06
-0.000168498
5.33079e-06
-0.000153792
5.16218e-06
-0.0001454
4.85087e-06
-0.000137904
5.86004e-06
-0.00014571
5.16996e-06
-0.000145868
6.88188e-06
-0.000128192
4.92807e-06
-0.000146124
5.33189e-06
-0.000142303
6.72709e-06
-0.000117095
5.37336e-06
-0.00010986
5.44202e-06
-0.000128715
4.89346e-06
-0.000165056
6.13457e-06
-0.000165196
6.94508e-06
-0.000139233
5.28373e-06
-0.000123154
5.65575e-06
-0.00013949
4.93596e-06
-0.000151601
5.08187e-06
-0.0001362
4.86182e-06
-0.000139941
4.6303e-06
-0.000140101
6.24063e-06
-0.000121133
4.98466e-06
-0.000130144
5.19237e-06
-0.000166912
6.04324e-06
-0.000137089
6.86739e-06
-0.000124454
4.7167e-06
-0.000127531
4.90113e-06
-0.000130757
5.52207e-06
-0.000130877
6.12344e-06
-0.000130992
4.40316e-06
-0.00013112
5.73426e-06
-0.000134529
5.4651e-06
-0.000149653
5.99035e-06
-0.000134866
4.77587e-06
-0.000135073
5.11754e-06
-0.000128889
5.28797e-06
-0.000123305
4.82463e-06
-0.000143176
4.47219e-06
-0.000170598
4.95212e-06
-0.000161159
5.12097e-06
-0.000127797
4.77089e-06
-0.000133903
3.55109e-06
-0.00014741
3.24855e-06
-0.00014973
2.71591e-06
-0.000178026
1.25023e-05
-0.000190327
1.34756e-05
-0.000158178
9.42114e-06
-0.000148622
8.72448e-06
-0.000145453
7.00422e-06
-0.000125714
6.33988e-06
-0.00012723
5.57073e-06
-0.000156943
7.02483e-06
-0.000191484
6.46834e-06
-0.000158315
6.53612e-06
-0.0001493
6.03349e-06
-0.000165648
6.61818e-06
-0.000139897
7.84436e-06
-0.000123903
6.20906e-06
-0.000123136
6.30773e-06
-0.000145088
5.90863e-06
-0.000143824
8.32422e-06
-0.000139608
6.08211e-06
-0.000134794
6.76546e-06
-0.000124825
5.4851e-06
-0.00015199
7.11374e-06
-0.000135059
6.93415e-06
-0.000127753
6.60717e-06
-0.000143917
7.49659e-06
-0.000146591
7.36036e-06
-0.000153855
9.13817e-06
-0.000161783
7.12805e-06
-0.000134166
9.91406e-06
-0.000109496
7.14294e-06
-0.000125129
7.70336e-06
-0.000122935
7.83259e-06
-0.000112877
6.85124e-06
-0.000129297
7.62238e-06
-0.000142703
7.75296e-06
-0.0001493
1.01148e-05
-0.000136906
8.92016e-06
9.16341e-06
-0.000138567
1.52063e-07
-0.000164305
7.73181e-07
-0.000194547
1.12699e-06
-0.000151826
1.76788e-06
-0.000141437
2.02799e-06
-0.000148291
2.43553e-06
-0.000138514
2.81315e-06
-0.000135588
3.13518e-06
-0.000132792
2.93979e-06
-0.000138696
3.20725e-06
-0.000164244
3.18389e-06
-0.000173341
3.43144e-06
-0.000183349
3.52658e-06
-0.000159744
3.54654e-06
-0.000144656
3.17343e-06
-0.000177496
2.94532e-06
-0.000188015
3.00348e-06
-0.000187736
2.94879e-06
-0.000162844
3.32994e-06
-0.00013432
2.56571e-06
-0.000131277
2.49665e-06
-0.000150283
3.25276e-06
-0.000166357
3.24787e-06
-0.000180783
3.31193e-06
-0.000170584
2.94491e-06
-0.000153288
2.75493e-06
-0.000180091
3.04355e-06
-0.00018535
3.18752e-06
-0.000185063
2.93981e-06
-0.00017943
3.8456e-06
-0.000169207
3.09513e-06
-0.000190109
3.44443e-06
-0.000164255
3.35397e-06
-0.000159686
3.59622e-06
-0.000168396
2.99766e-06
-0.000137619
2.88384e-06
-0.000128692
2.94761e-06
-0.000128581
3.41656e-06
-0.000154776
2.95602e-06
-0.000167555
3.16889e-06
-0.000162817
2.85809e-06
-0.000182384
3.57647e-06
-0.000187853
3.08899e-06
-0.000171594
3.68685e-06
-0.000139502
2.87925e-06
-0.000157647
3.63139e-06
-0.000193044
3.27891e-06
-0.000149472
3.96929e-06
-0.000142159
3.59756e-06
-0.000180726
3.12961e-06
-0.000186214
3.91886e-06
-0.000148842
3.08067e-06
-0.000145051
3.09834e-06
-0.000165125
3.49938e-06
-0.000169769
3.05706e-06
-0.000156384
3.08762e-06
-0.000144971
3.67581e-06
-0.000148703
3.15033e-06
-0.000156664
3.22192e-06
-0.000145403
3.65963e-06
-0.00012969
2.44318e-06
-0.00013012
2.58284e-06
-0.000142726
1.26474e-06
-0.000175813
6.35566e-06
-0.000181843
8.58997e-06
-0.00018017
6.1327e-06
-0.000166149
6.9836e-06
-0.000145386
5.30332e-06
-0.000139824
5.45876e-06
-0.000155659
4.6496e-06
-0.000157417
5.90739e-06
-0.000135556
4.66363e-06
-0.00014412
5.08447e-06
-0.000149991
4.72563e-06
-0.000170109
4.85849e-06
-0.000178555
4.78092e-06
-0.000157777
4.01007e-06
-0.000144619
4.96751e-06
-0.000155031
4.87598e-06
-0.00015767
5.00626e-06
-0.000133906
4.2939e-06
-0.000121245
5.13421e-06
-0.000128437
4.09761e-06
-0.0001299
4.96302e-06
-0.000125755
5.0584e-06
-0.00013352
5.50471e-06
-0.00012869
5.23755e-06
-0.000144904
5.72592e-06
-0.000131653
5.49954e-06
-0.000130327
4.79314e-06
-0.000138936
6.96606e-06
-0.000126828
7.07481e-06
-0.000118559
6.54243e-06
-0.000104196
5.72633e-06
-0.000104774
6.9224e-06
-0.000102806
6.18836e-06
-0.000113622
6.0711e-06
-0.000117141
9.383e-06
-0.000109601
8.68995e-06
8.94146e-06
-0.000344558
-0.000316463
-0.00030003
-0.000316409
-0.00029961
-0.000299261
-0.0003341
-0.000324294
-0.000323456
-0.000332383
-0.000312961
-0.000330294
-0.00032929
-0.000328032
-0.000300489
-0.000257549
-0.000250759
-0.000268067
-0.000254765
-0.000227327
-0.000271651
-0.000309513
-0.000291621
-0.000256053
-0.000227857
-0.000242439
-0.00024715
-0.000235232
-0.000263458
-0.000276373
-0.000261381
-0.000260366
-0.000287936
-0.000264953
-0.000218809
-0.000238131
-0.000283202
-0.000282177
-0.000235238
-0.000218941
-0.000238715
-0.000237807
-0.000236673
-0.000230278
-0.000252543
-0.0002583
-0.000244048
-0.000303693
-0.000254775
-0.000234848
-0.000228381
-0.0002169
-0.000243675
-0.000225412
-0.000204946
-0.00024698
-0.000267472
-0.000239123
-0.000265561
-0.000232005
-0.000237164
-0.000265221
-0.000270425
-0.000287882
-0.000265961
-0.000302793
-0.000310944
-0.000293872
-0.000278615
-0.000281484
-0.000285048
-0.000280485
-0.000267637
-0.000248534
-0.000231528
-0.000191873
-0.000197886
-0.000226938
-0.000211494
-0.000183878
-0.000194201
-0.000185981
-0.000166217
-0.000183124
-0.000188697
-0.000175385
-0.000175775
-0.00016329
-0.000142085
-0.000155105
-0.000187334
-0.000171665
-0.000138666
-0.000144095
-0.000138722
-0.000115445
-0.000130464
-0.000152239
-0.000131571
)
;

boundaryField
{
    inlet
    {
        type            fixedValue;
        value           nonuniform List<scalar> 10(-5e-05 -5e-05 -5e-05 -5e-05 -5e-05 -5e-05 -5e-05 -5e-05 -5e-05 -5e-05);
    }
    outlet
    {
        type            calculated;
        value           nonuniform List<scalar> 10(-1.50515e-56 1.40928e-20 1.64951e-08 5.45608e-05 0.000101187 0.000138991 0.000145157 0.000144748 0.00014092 0.000333089);
    }
    walls
    {
        type            fixedValue;
        value           uniform 0;
    }
}


// ************************************************************************* //
