/*--------------------------------*- C++ -*----------------------------------*\
| =========                 |                                                 |
| \\      /  F ield         | foam-extend: Open Source CFD                    |
|  \\    /   O peration     | Version:     5.0                                |
|   \\  /    A nd           | Web:         http://www.foam-extend.org         |
|    \\/     M anipulation  |                                                 |
\*---------------------------------------------------------------------------*/
FoamFile
{
    version     2.0;
    format      ascii;
    class       volScalarField;
    location    "8000";
    object      S.gas;
}
// * * * * * * * * * * * * * * * * * * * * * * * * * * * * * * * * * * * * * //

dimensions      [0 0 0 0 0 0 0];

internalField   nonuniform List<scalar> 
1000
(
1.06289e-29
4.56701e-27
5.39951e-24
1.45012e-22
2.55017e-22
3.12327e-21
2.65022e-20
7.25276e-20
1.5632e-18
1.03517e-17
6.4258e-18
4.09115e-15
8.22052e-13
1.47988e-11
8.33235e-11
1.96446e-10
9.76078e-10
8.18261e-10
1.95459e-09
2.18834e-09
5.12485e-09
7.76411e-09
1.63114e-07
3.84017e-06
2.6342e-05
6.91546e-05
0.000109349
0.000142066
0.000188651
0.000355523
0.000417254
0.00035501
0.000472992
0.000549613
0.000685005
0.000608385
0.000646461
0.000801375
0.00220363
0.0119068
0.0321211
0.0463314
0.050397
0.0523765
0.0535107
0.05457
0.0556153
0.0567259
0.0578265
0.0589378
0.0601058
0.0612736
0.0624735
0.0636882
0.0649439
0.0662502
0.0675734
0.0689766
0.0704165
0.0713489
0.0650281
0.0567414
0.0564474
0.0598936
0.0628673
0.0653578
0.067931
0.070041
0.0722343
0.0743086
0.0764197
0.0785512
0.080882
0.0831248
0.085552
0.088075
0.090702
0.093404
0.0962255
0.0990903
0.102307
0.105595
0.109052
0.112697
0.116371
0.120295
0.124698
0.12903
0.134134
0.139439
0.145225
0.150775
0.15712
0.164324
0.171647
0.179457
0.188489
0.198734
0.21067
0.222507
1.91687e-12
1.18506e-11
1.13648e-10
3.16813e-10
3.16676e-10
7.62543e-10
1.955e-09
3.30045e-09
1.15054e-08
2.82658e-08
4.15874e-08
1.70013e-06
1.93552e-05
6.52572e-05
0.000124571
0.000135316
0.00028486
0.000280968
0.000366381
0.000389148
0.000568588
0.000754556
0.00743037
0.030756
0.052935
0.0624542
0.0664983
0.0688392
0.0707014
0.0725699
0.0743842
0.0763113
0.0781939
0.0801232
0.0820777
0.0840648
0.0860944
0.0880671
0.0899606
0.0915681
0.0929807
0.094414
0.0957515
0.097029
0.0982997
0.0996272
0.100951
0.102318
0.103703
0.105096
0.106467
0.107827
0.109158
0.110522
0.111778
0.112996
0.114124
0.115161
0.115972
0.116019
0.109318
0.0932916
0.0932329
0.0986933
0.103892
0.108285
0.111361
0.114683
0.117259
0.119777
0.122234
0.124829
0.127509
0.130338
0.13302
0.13561
0.13815
0.14073
0.143641
0.146432
0.149749
0.152654
0.155747
0.159337
0.162449
0.165653
0.16963
0.173313
0.177117
0.180833
0.185267
0.189931
0.195034
0.199525
0.203807
0.208667
0.214196
0.219505
0.224836
0.23006
2.45223e-05
6.01749e-05
0.000145978
0.000213008
0.00021083
0.000299421
0.000363389
0.000513127
0.000752764
0.00107442
0.00293266
0.0234079
0.0594447
0.073893
0.0807382
0.0839994
0.0868207
0.0894999
0.0921284
0.0948098
0.0975585
0.100191
0.10268
0.104896
0.107158
0.109265
0.11105
0.112653
0.114211
0.115749
0.11727
0.118768
0.120241
0.121684
0.123091
0.124447
0.125771
0.12701
0.128123
0.129073
0.129997
0.130983
0.131943
0.133
0.13398
0.134979
0.136022
0.137047
0.138029
0.138993
0.139963
0.140917
0.141849
0.142706
0.143479
0.144137
0.144674
0.145108
0.145272
0.144958
0.143888
0.135234
0.121048
0.12033
0.125061
0.130383
0.134743
0.137721
0.140415
0.142803
0.145383
0.14802
0.150246
0.152242
0.154745
0.157009
0.159407
0.161765
0.163684
0.165959
0.168432
0.171063
0.173766
0.176059
0.178865
0.181503
0.184062
0.186944
0.190146
0.193159
0.19671
0.199282
0.202142
0.205331
0.2085
0.211668
0.215186
0.220039
0.22375
0.229072
0.0691328
0.0867721
0.094952
0.099637
0.100939
0.102036
0.103533
0.105467
0.107851
0.110659
0.113594
0.116247
0.11914
0.122055
0.124485
0.126469
0.128262
0.130013
0.131668
0.133257
0.13476
0.136177
0.13744
0.138577
0.139682
0.140817
0.141926
0.143025
0.14411
0.14515
0.146167
0.14718
0.148177
0.149118
0.15006
0.150961
0.15182
0.152623
0.153396
0.154128
0.154785
0.155456
0.15617
0.156856
0.157531
0.158246
0.158907
0.159591
0.160236
0.160861
0.161432
0.162044
0.162572
0.163079
0.163519
0.163904
0.164266
0.16447
0.164581
0.164423
0.163996
0.161302
0.142435
0.134344
0.137706
0.14267
0.146071
0.149854
0.152342
0.154949
0.15724
0.158917
0.160588
0.162363
0.163904
0.166001
0.167715
0.169874
0.171507
0.173245
0.175085
0.176694
0.178718
0.180859
0.182983
0.185055
0.187581
0.190019
0.192784
0.195568
0.198267
0.200416
0.202509
0.206029
0.209549
0.212691
0.216941
0.220198
0.224423
0.229051
0.14523
0.144385
0.14366
0.142866
0.142362
0.142209
0.14251
0.143222
0.144126
0.145172
0.146345
0.147477
0.148652
0.149864
0.151038
0.152148
0.153198
0.154201
0.155153
0.156054
0.156906
0.157706
0.158453
0.159156
0.159829
0.160523
0.1612
0.16186
0.162511
0.163157
0.163791
0.164387
0.164989
0.16556
0.166112
0.16663
0.167154
0.167651
0.168116
0.168569
0.168981
0.169401
0.169801
0.170193
0.170597
0.170999
0.171388
0.171767
0.17212
0.172474
0.172818
0.173117
0.173405
0.173634
0.173858
0.174028
0.174125
0.174202
0.174215
0.174094
0.173976
0.173528
0.164842
0.144016
0.142672
0.146364
0.150488
0.15418
0.157341
0.15905
0.160981
0.16312
0.164987
0.166892
0.168616
0.170119
0.17191
0.173255
0.17521
0.176573
0.178028
0.179917
0.181969
0.184191
0.185846
0.187436
0.189365
0.191022
0.193486
0.195359
0.197257
0.199979
0.203199
0.206601
0.209627
0.213237
0.216644
0.221248
0.226457
0.231607
0.159575
0.161632
0.162738
0.163168
0.163096
0.16304
0.163067
0.163125
0.163462
0.163805
0.164225
0.164714
0.165291
0.165866
0.166466
0.167038
0.167591
0.168136
0.168658
0.169143
0.169594
0.170011
0.170411
0.170799
0.17118
0.171548
0.171923
0.172272
0.17262
0.172966
0.173306
0.173636
0.173953
0.17426
0.17456
0.174842
0.175113
0.175374
0.175628
0.175868
0.1761
0.176319
0.176528
0.176742
0.176943
0.177137
0.177338
0.177527
0.177721
0.177908
0.178087
0.17826
0.178423
0.178577
0.178718
0.178837
0.178942
0.179013
0.179054
0.179071
0.179069
0.179043
0.177713
0.16153
0.145386
0.146896
0.151457
0.15561
0.158774
0.160669
0.162401
0.16454
0.166044
0.167738
0.168929
0.170408
0.171815
0.173056
0.174794
0.176141
0.178015
0.179272
0.181315
0.183429
0.185528
0.18744
0.189242
0.191429
0.193753
0.196311
0.198682
0.201082
0.203747
0.206405
0.209684
0.213638
0.218275
0.222492
0.227345
0.231874
0.155979
0.162748
0.16922
0.171457
0.173041
0.173518
0.173722
0.173889
0.17405
0.174244
0.174425
0.174639
0.174909
0.175154
0.175423
0.175671
0.175934
0.176179
0.176397
0.176606
0.176804
0.176995
0.177172
0.177334
0.177507
0.177657
0.177795
0.177932
0.178078
0.178211
0.178352
0.178486
0.178614
0.178741
0.178864
0.17898
0.179097
0.17921
0.179319
0.179425
0.179527
0.179624
0.179716
0.179803
0.179883
0.179956
0.180026
0.180089
0.180151
0.180208
0.180262
0.180314
0.180362
0.180408
0.180448
0.180483
0.180513
0.180538
0.180558
0.180574
0.180587
0.180585
0.178596
0.158512
0.146246
0.148031
0.151533
0.155735
0.158145
0.160367
0.162411
0.164185
0.165843
0.16722
0.168647
0.169763
0.171501
0.172627
0.174326
0.176052
0.177415
0.179127
0.180561
0.181823
0.183824
0.185899
0.188177
0.190589
0.192916
0.195488
0.198219
0.200216
0.202575
0.205825
0.209227
0.212976
0.21671
0.220572
0.224915
0.230015
0.179915
0.18225
0.183659
0.184574
0.185043
0.185272
0.185307
0.185233
0.185145
0.185043
0.184985
0.184948
0.184944
0.184955
0.184971
0.184973
0.184983
0.184986
0.184972
0.184962
0.184943
0.184919
0.184881
0.184842
0.184792
0.184752
0.1847
0.184649
0.184605
0.184554
0.184501
0.184452
0.18441
0.184371
0.184332
0.184296
0.184265
0.184232
0.184204
0.18418
0.184154
0.184132
0.184117
0.184088
0.184053
0.184029
0.183992
0.183952
0.183901
0.183846
0.183783
0.183714
0.183641
0.183561
0.183471
0.183375
0.183261
0.183139
0.183017
0.182898
0.182775
0.182646
0.179815
0.158502
0.147719
0.150293
0.15358
0.157676
0.160043
0.162635
0.164933
0.166808
0.168015
0.169176
0.170786
0.172079
0.173387
0.175156
0.176903
0.178769
0.180022
0.181983
0.183407
0.1856
0.187474
0.189127
0.191538
0.193553
0.195645
0.197716
0.199747
0.201696
0.204733
0.208225
0.210896
0.215014
0.218839
0.22269
0.226515
0.230959
0.230847
0.231457
0.231808
0.231129
0.230305
0.229326
0.228195
0.227063
0.226013
0.225098
0.224309
0.223664
0.223105
0.222576
0.222068
0.221568
0.221071
0.220564
0.220049
0.219524
0.218994
0.218455
0.217911
0.217364
0.216819
0.216276
0.215737
0.215205
0.214677
0.214156
0.213637
0.21313
0.212625
0.212119
0.211635
0.211139
0.210658
0.2102
0.209746
0.209305
0.208823
0.208374
0.2079
0.20743
0.206949
0.206491
0.20604
0.20555
0.205057
0.204584
0.204081
0.20356
0.203033
0.202502
0.201947
0.201374
0.200779
0.200161
0.199519
0.19885
0.198161
0.197411
0.196145
0.18236
0.160317
0.159821
0.16432
0.167207
0.170606
0.172957
0.175212
0.176367
0.178026
0.179498
0.180769
0.181998
0.182815
0.183869
0.18499
0.186277
0.18713
0.188352
0.189758
0.191428
0.192666
0.194346
0.195826
0.197351
0.199072
0.200179
0.202464
0.203745
0.205962
0.207896
0.210759
0.213995
0.217438
0.221658
0.225065
0.23051
0.424864
0.424825
0.424644
0.424735
0.423359
0.421153
0.418312
0.415128
0.412129
0.409179
0.406646
0.404271
0.402108
0.400117
0.398189
0.396323
0.394489
0.392688
0.390892
0.389061
0.387243
0.385406
0.383499
0.381598
0.37968
0.377789
0.37589
0.373982
0.372083
0.370195
0.368271
0.366377
0.364469
0.362578
0.360632
0.358763
0.356892
0.354997
0.35305
0.351148
0.349283
0.347428
0.345513
0.343664
0.341747
0.339916
0.337926
0.336058
0.334077
0.332048
0.330124
0.328094
0.32614
0.324103
0.322021
0.319978
0.317903
0.315634
0.313392
0.311042
0.308519
0.305769
0.302198
0.287743
0.256013
0.246945
0.252744
0.256237
0.259115
0.260741
0.262096
0.262441
0.26285
0.262755
0.262828
0.262585
0.262495
0.262805
0.262374
0.261891
0.261477
0.261405
0.260578
0.260564
0.260079
0.259337
0.25851
0.257866
0.256711
0.256109
0.25557
0.254112
0.252157
0.250871
0.249911
0.247847
0.246627
0.245668
0.242433
0.239388
)
;

boundaryField
{
    inlet
    {
        type            calculated;
        value           uniform 0.5;
    }
    outlet
    {
        type            calculated;
        value           nonuniform List<scalar> 10(1.06289e-29 1.91687e-12 2.45223e-05 0.0691328 0.14523 0.159575 0.155979 0.179915 0.230847 0.424864);
    }
    walls
    {
        type            calculated;
        value           nonuniform List<scalar> 
2200
(
1.06289e-29
4.56701e-27
5.39951e-24
1.45012e-22
2.55017e-22
3.12327e-21
2.65022e-20
7.25276e-20
1.5632e-18
1.03517e-17
6.4258e-18
4.09115e-15
8.22052e-13
1.47988e-11
8.33235e-11
1.96446e-10
9.76078e-10
8.18261e-10
1.95459e-09
2.18834e-09
5.12485e-09
7.76411e-09
1.63114e-07
3.84017e-06
2.6342e-05
6.91546e-05
0.000109349
0.000142066
0.000188651
0.000355523
0.000417254
0.00035501
0.000472992
0.000549613
0.000685005
0.000608385
0.000646461
0.000801375
0.00220363
0.0119068
0.0321211
0.0463314
0.050397
0.0523765
0.0535107
0.05457
0.0556153
0.0567259
0.0578265
0.0589378
0.0601058
0.0612736
0.0624735
0.0636882
0.0649439
0.0662502
0.0675734
0.0689766
0.0704165
0.0713489
0.0650281
0.0567414
0.0564474
0.0598936
0.0628673
0.0653578
0.067931
0.070041
0.0722343
0.0743086
0.0764197
0.0785512
0.080882
0.0831248
0.085552
0.088075
0.090702
0.093404
0.0962255
0.0990903
0.102307
0.105595
0.109052
0.112697
0.116371
0.120295
0.124698
0.12903
0.134134
0.139439
0.145225
0.150775
0.15712
0.164324
0.171647
0.179457
0.188489
0.198734
0.21067
0.222507
1.91687e-12
1.18506e-11
1.13648e-10
3.16813e-10
3.16676e-10
7.62543e-10
1.955e-09
3.30045e-09
1.15054e-08
2.82658e-08
4.15874e-08
1.70013e-06
1.93552e-05
6.52572e-05
0.000124571
0.000135316
0.00028486
0.000280968
0.000366381
0.000389148
0.000568588
0.000754556
0.00743037
0.030756
0.052935
0.0624542
0.0664983
0.0688392
0.0707014
0.0725699
0.0743842
0.0763113
0.0781939
0.0801232
0.0820777
0.0840648
0.0860944
0.0880671
0.0899606
0.0915681
0.0929807
0.094414
0.0957515
0.097029
0.0982997
0.0996272
0.100951
0.102318
0.103703
0.105096
0.106467
0.107827
0.109158
0.110522
0.111778
0.112996
0.114124
0.115161
0.115972
0.116019
0.109318
0.0932916
0.0932329
0.0986933
0.103892
0.108285
0.111361
0.114683
0.117259
0.119777
0.122234
0.124829
0.127509
0.130338
0.13302
0.13561
0.13815
0.14073
0.143641
0.146432
0.149749
0.152654
0.155747
0.159337
0.162449
0.165653
0.16963
0.173313
0.177117
0.180833
0.185267
0.189931
0.195034
0.199525
0.203807
0.208667
0.214196
0.219505
0.224836
0.23006
2.45223e-05
6.01749e-05
0.000145978
0.000213008
0.00021083
0.000299421
0.000363389
0.000513127
0.000752764
0.00107442
0.00293266
0.0234079
0.0594447
0.073893
0.0807382
0.0839994
0.0868207
0.0894999
0.0921284
0.0948098
0.0975585
0.100191
0.10268
0.104896
0.107158
0.109265
0.11105
0.112653
0.114211
0.115749
0.11727
0.118768
0.120241
0.121684
0.123091
0.124447
0.125771
0.12701
0.128123
0.129073
0.129997
0.130983
0.131943
0.133
0.13398
0.134979
0.136022
0.137047
0.138029
0.138993
0.139963
0.140917
0.141849
0.142706
0.143479
0.144137
0.144674
0.145108
0.145272
0.144958
0.143888
0.135234
0.121048
0.12033
0.125061
0.130383
0.134743
0.137721
0.140415
0.142803
0.145383
0.14802
0.150246
0.152242
0.154745
0.157009
0.159407
0.161765
0.163684
0.165959
0.168432
0.171063
0.173766
0.176059
0.178865
0.181503
0.184062
0.186944
0.190146
0.193159
0.19671
0.199282
0.202142
0.205331
0.2085
0.211668
0.215186
0.220039
0.22375
0.229072
0.0691328
0.0867721
0.094952
0.099637
0.100939
0.102036
0.103533
0.105467
0.107851
0.110659
0.113594
0.116247
0.11914
0.122055
0.124485
0.126469
0.128262
0.130013
0.131668
0.133257
0.13476
0.136177
0.13744
0.138577
0.139682
0.140817
0.141926
0.143025
0.14411
0.14515
0.146167
0.14718
0.148177
0.149118
0.15006
0.150961
0.15182
0.152623
0.153396
0.154128
0.154785
0.155456
0.15617
0.156856
0.157531
0.158246
0.158907
0.159591
0.160236
0.160861
0.161432
0.162044
0.162572
0.163079
0.163519
0.163904
0.164266
0.16447
0.164581
0.164423
0.163996
0.161302
0.142435
0.134344
0.137706
0.14267
0.146071
0.149854
0.152342
0.154949
0.15724
0.158917
0.160588
0.162363
0.163904
0.166001
0.167715
0.169874
0.171507
0.173245
0.175085
0.176694
0.178718
0.180859
0.182983
0.185055
0.187581
0.190019
0.192784
0.195568
0.198267
0.200416
0.202509
0.206029
0.209549
0.212691
0.216941
0.220198
0.224423
0.229051
0.14523
0.144385
0.14366
0.142866
0.142362
0.142209
0.14251
0.143222
0.144126
0.145172
0.146345
0.147477
0.148652
0.149864
0.151038
0.152148
0.153198
0.154201
0.155153
0.156054
0.156906
0.157706
0.158453
0.159156
0.159829
0.160523
0.1612
0.16186
0.162511
0.163157
0.163791
0.164387
0.164989
0.16556
0.166112
0.16663
0.167154
0.167651
0.168116
0.168569
0.168981
0.169401
0.169801
0.170193
0.170597
0.170999
0.171388
0.171767
0.17212
0.172474
0.172818
0.173117
0.173405
0.173634
0.173858
0.174028
0.174125
0.174202
0.174215
0.174094
0.173976
0.173528
0.164842
0.144016
0.142672
0.146364
0.150488
0.15418
0.157341
0.15905
0.160981
0.16312
0.164987
0.166892
0.168616
0.170119
0.17191
0.173255
0.17521
0.176573
0.178028
0.179917
0.181969
0.184191
0.185846
0.187436
0.189365
0.191022
0.193486
0.195359
0.197257
0.199979
0.203199
0.206601
0.209627
0.213237
0.216644
0.221248
0.226457
0.231607
0.159575
0.161632
0.162738
0.163168
0.163096
0.16304
0.163067
0.163125
0.163462
0.163805
0.164225
0.164714
0.165291
0.165866
0.166466
0.167038
0.167591
0.168136
0.168658
0.169143
0.169594
0.170011
0.170411
0.170799
0.17118
0.171548
0.171923
0.172272
0.17262
0.172966
0.173306
0.173636
0.173953
0.17426
0.17456
0.174842
0.175113
0.175374
0.175628
0.175868
0.1761
0.176319
0.176528
0.176742
0.176943
0.177137
0.177338
0.177527
0.177721
0.177908
0.178087
0.17826
0.178423
0.178577
0.178718
0.178837
0.178942
0.179013
0.179054
0.179071
0.179069
0.179043
0.177713
0.16153
0.145386
0.146896
0.151457
0.15561
0.158774
0.160669
0.162401
0.16454
0.166044
0.167738
0.168929
0.170408
0.171815
0.173056
0.174794
0.176141
0.178015
0.179272
0.181315
0.183429
0.185528
0.18744
0.189242
0.191429
0.193753
0.196311
0.198682
0.201082
0.203747
0.206405
0.209684
0.213638
0.218275
0.222492
0.227345
0.231874
0.155979
0.162748
0.16922
0.171457
0.173041
0.173518
0.173722
0.173889
0.17405
0.174244
0.174425
0.174639
0.174909
0.175154
0.175423
0.175671
0.175934
0.176179
0.176397
0.176606
0.176804
0.176995
0.177172
0.177334
0.177507
0.177657
0.177795
0.177932
0.178078
0.178211
0.178352
0.178486
0.178614
0.178741
0.178864
0.17898
0.179097
0.17921
0.179319
0.179425
0.179527
0.179624
0.179716
0.179803
0.179883
0.179956
0.180026
0.180089
0.180151
0.180208
0.180262
0.180314
0.180362
0.180408
0.180448
0.180483
0.180513
0.180538
0.180558
0.180574
0.180587
0.180585
0.178596
0.158512
0.146246
0.148031
0.151533
0.155735
0.158145
0.160367
0.162411
0.164185
0.165843
0.16722
0.168647
0.169763
0.171501
0.172627
0.174326
0.176052
0.177415
0.179127
0.180561
0.181823
0.183824
0.185899
0.188177
0.190589
0.192916
0.195488
0.198219
0.200216
0.202575
0.205825
0.209227
0.212976
0.21671
0.220572
0.224915
0.230015
0.179915
0.18225
0.183659
0.184574
0.185043
0.185272
0.185307
0.185233
0.185145
0.185043
0.184985
0.184948
0.184944
0.184955
0.184971
0.184973
0.184983
0.184986
0.184972
0.184962
0.184943
0.184919
0.184881
0.184842
0.184792
0.184752
0.1847
0.184649
0.184605
0.184554
0.184501
0.184452
0.18441
0.184371
0.184332
0.184296
0.184265
0.184232
0.184204
0.18418
0.184154
0.184132
0.184117
0.184088
0.184053
0.184029
0.183992
0.183952
0.183901
0.183846
0.183783
0.183714
0.183641
0.183561
0.183471
0.183375
0.183261
0.183139
0.183017
0.182898
0.182775
0.182646
0.179815
0.158502
0.147719
0.150293
0.15358
0.157676
0.160043
0.162635
0.164933
0.166808
0.168015
0.169176
0.170786
0.172079
0.173387
0.175156
0.176903
0.178769
0.180022
0.181983
0.183407
0.1856
0.187474
0.189127
0.191538
0.193553
0.195645
0.197716
0.199747
0.201696
0.204733
0.208225
0.210896
0.215014
0.218839
0.22269
0.226515
0.230959
0.230847
0.231457
0.231808
0.231129
0.230305
0.229326
0.228195
0.227063
0.226013
0.225098
0.224309
0.223664
0.223105
0.222576
0.222068
0.221568
0.221071
0.220564
0.220049
0.219524
0.218994
0.218455
0.217911
0.217364
0.216819
0.216276
0.215737
0.215205
0.214677
0.214156
0.213637
0.21313
0.212625
0.212119
0.211635
0.211139
0.210658
0.2102
0.209746
0.209305
0.208823
0.208374
0.2079
0.20743
0.206949
0.206491
0.20604
0.20555
0.205057
0.204584
0.204081
0.20356
0.203033
0.202502
0.201947
0.201374
0.200779
0.200161
0.199519
0.19885
0.198161
0.197411
0.196145
0.18236
0.160317
0.159821
0.16432
0.167207
0.170606
0.172957
0.175212
0.176367
0.178026
0.179498
0.180769
0.181998
0.182815
0.183869
0.18499
0.186277
0.18713
0.188352
0.189758
0.191428
0.192666
0.194346
0.195826
0.197351
0.199072
0.200179
0.202464
0.203745
0.205962
0.207896
0.210759
0.213995
0.217438
0.221658
0.225065
0.23051
0.424864
0.424825
0.424644
0.424735
0.423359
0.421153
0.418312
0.415128
0.412129
0.409179
0.406646
0.404271
0.402108
0.400117
0.398189
0.396323
0.394489
0.392688
0.390892
0.389061
0.387243
0.385406
0.383499
0.381598
0.37968
0.377789
0.37589
0.373982
0.372083
0.370195
0.368271
0.366377
0.364469
0.362578
0.360632
0.358763
0.356892
0.354997
0.35305
0.351148
0.349283
0.347428
0.345513
0.343664
0.341747
0.339916
0.337926
0.336058
0.334077
0.332048
0.330124
0.328094
0.32614
0.324103
0.322021
0.319978
0.317903
0.315634
0.313392
0.311042
0.308519
0.305769
0.302198
0.287743
0.256013
0.246945
0.252744
0.256237
0.259115
0.260741
0.262096
0.262441
0.26285
0.262755
0.262828
0.262585
0.262495
0.262805
0.262374
0.261891
0.261477
0.261405
0.260578
0.260564
0.260079
0.259337
0.25851
0.257866
0.256711
0.256109
0.25557
0.254112
0.252157
0.250871
0.249911
0.247847
0.246627
0.245668
0.242433
0.239388
1.06289e-29
4.56701e-27
5.39951e-24
1.45012e-22
2.55017e-22
3.12327e-21
2.65022e-20
7.25276e-20
1.5632e-18
1.03517e-17
6.4258e-18
4.09115e-15
8.22052e-13
1.47988e-11
8.33235e-11
1.96446e-10
9.76078e-10
8.18261e-10
1.95459e-09
2.18834e-09
5.12485e-09
7.76411e-09
1.63114e-07
3.84017e-06
2.6342e-05
6.91546e-05
0.000109349
0.000142066
0.000188651
0.000355523
0.000417254
0.00035501
0.000472992
0.000549613
0.000685005
0.000608385
0.000646461
0.000801375
0.00220363
0.0119068
0.0321211
0.0463314
0.050397
0.0523765
0.0535107
0.05457
0.0556153
0.0567259
0.0578265
0.0589378
0.0601058
0.0612736
0.0624735
0.0636882
0.0649439
0.0662502
0.0675734
0.0689766
0.0704165
0.0713489
0.0650281
0.0567414
0.0564474
0.0598936
0.0628673
0.0653578
0.067931
0.070041
0.0722343
0.0743086
0.0764197
0.0785512
0.080882
0.0831248
0.085552
0.088075
0.090702
0.093404
0.0962255
0.0990903
0.102307
0.105595
0.109052
0.112697
0.116371
0.120295
0.124698
0.12903
0.134134
0.139439
0.145225
0.150775
0.15712
0.164324
0.171647
0.179457
0.188489
0.198734
0.21067
0.222507
1.91687e-12
1.18506e-11
1.13648e-10
3.16813e-10
3.16676e-10
7.62543e-10
1.955e-09
3.30045e-09
1.15054e-08
2.82658e-08
4.15874e-08
1.70013e-06
1.93552e-05
6.52572e-05
0.000124571
0.000135316
0.00028486
0.000280968
0.000366381
0.000389148
0.000568588
0.000754556
0.00743037
0.030756
0.052935
0.0624542
0.0664983
0.0688392
0.0707014
0.0725699
0.0743842
0.0763113
0.0781939
0.0801232
0.0820777
0.0840648
0.0860944
0.0880671
0.0899606
0.0915681
0.0929807
0.094414
0.0957515
0.097029
0.0982997
0.0996272
0.100951
0.102318
0.103703
0.105096
0.106467
0.107827
0.109158
0.110522
0.111778
0.112996
0.114124
0.115161
0.115972
0.116019
0.109318
0.0932916
0.0932329
0.0986933
0.103892
0.108285
0.111361
0.114683
0.117259
0.119777
0.122234
0.124829
0.127509
0.130338
0.13302
0.13561
0.13815
0.14073
0.143641
0.146432
0.149749
0.152654
0.155747
0.159337
0.162449
0.165653
0.16963
0.173313
0.177117
0.180833
0.185267
0.189931
0.195034
0.199525
0.203807
0.208667
0.214196
0.219505
0.224836
0.23006
2.45223e-05
6.01749e-05
0.000145978
0.000213008
0.00021083
0.000299421
0.000363389
0.000513127
0.000752764
0.00107442
0.00293266
0.0234079
0.0594447
0.073893
0.0807382
0.0839994
0.0868207
0.0894999
0.0921284
0.0948098
0.0975585
0.100191
0.10268
0.104896
0.107158
0.109265
0.11105
0.112653
0.114211
0.115749
0.11727
0.118768
0.120241
0.121684
0.123091
0.124447
0.125771
0.12701
0.128123
0.129073
0.129997
0.130983
0.131943
0.133
0.13398
0.134979
0.136022
0.137047
0.138029
0.138993
0.139963
0.140917
0.141849
0.142706
0.143479
0.144137
0.144674
0.145108
0.145272
0.144958
0.143888
0.135234
0.121048
0.12033
0.125061
0.130383
0.134743
0.137721
0.140415
0.142803
0.145383
0.14802
0.150246
0.152242
0.154745
0.157009
0.159407
0.161765
0.163684
0.165959
0.168432
0.171063
0.173766
0.176059
0.178865
0.181503
0.184062
0.186944
0.190146
0.193159
0.19671
0.199282
0.202142
0.205331
0.2085
0.211668
0.215186
0.220039
0.22375
0.229072
0.0691328
0.0867721
0.094952
0.099637
0.100939
0.102036
0.103533
0.105467
0.107851
0.110659
0.113594
0.116247
0.11914
0.122055
0.124485
0.126469
0.128262
0.130013
0.131668
0.133257
0.13476
0.136177
0.13744
0.138577
0.139682
0.140817
0.141926
0.143025
0.14411
0.14515
0.146167
0.14718
0.148177
0.149118
0.15006
0.150961
0.15182
0.152623
0.153396
0.154128
0.154785
0.155456
0.15617
0.156856
0.157531
0.158246
0.158907
0.159591
0.160236
0.160861
0.161432
0.162044
0.162572
0.163079
0.163519
0.163904
0.164266
0.16447
0.164581
0.164423
0.163996
0.161302
0.142435
0.134344
0.137706
0.14267
0.146071
0.149854
0.152342
0.154949
0.15724
0.158917
0.160588
0.162363
0.163904
0.166001
0.167715
0.169874
0.171507
0.173245
0.175085
0.176694
0.178718
0.180859
0.182983
0.185055
0.187581
0.190019
0.192784
0.195568
0.198267
0.200416
0.202509
0.206029
0.209549
0.212691
0.216941
0.220198
0.224423
0.229051
0.14523
0.144385
0.14366
0.142866
0.142362
0.142209
0.14251
0.143222
0.144126
0.145172
0.146345
0.147477
0.148652
0.149864
0.151038
0.152148
0.153198
0.154201
0.155153
0.156054
0.156906
0.157706
0.158453
0.159156
0.159829
0.160523
0.1612
0.16186
0.162511
0.163157
0.163791
0.164387
0.164989
0.16556
0.166112
0.16663
0.167154
0.167651
0.168116
0.168569
0.168981
0.169401
0.169801
0.170193
0.170597
0.170999
0.171388
0.171767
0.17212
0.172474
0.172818
0.173117
0.173405
0.173634
0.173858
0.174028
0.174125
0.174202
0.174215
0.174094
0.173976
0.173528
0.164842
0.144016
0.142672
0.146364
0.150488
0.15418
0.157341
0.15905
0.160981
0.16312
0.164987
0.166892
0.168616
0.170119
0.17191
0.173255
0.17521
0.176573
0.178028
0.179917
0.181969
0.184191
0.185846
0.187436
0.189365
0.191022
0.193486
0.195359
0.197257
0.199979
0.203199
0.206601
0.209627
0.213237
0.216644
0.221248
0.226457
0.231607
0.159575
0.161632
0.162738
0.163168
0.163096
0.16304
0.163067
0.163125
0.163462
0.163805
0.164225
0.164714
0.165291
0.165866
0.166466
0.167038
0.167591
0.168136
0.168658
0.169143
0.169594
0.170011
0.170411
0.170799
0.17118
0.171548
0.171923
0.172272
0.17262
0.172966
0.173306
0.173636
0.173953
0.17426
0.17456
0.174842
0.175113
0.175374
0.175628
0.175868
0.1761
0.176319
0.176528
0.176742
0.176943
0.177137
0.177338
0.177527
0.177721
0.177908
0.178087
0.17826
0.178423
0.178577
0.178718
0.178837
0.178942
0.179013
0.179054
0.179071
0.179069
0.179043
0.177713
0.16153
0.145386
0.146896
0.151457
0.15561
0.158774
0.160669
0.162401
0.16454
0.166044
0.167738
0.168929
0.170408
0.171815
0.173056
0.174794
0.176141
0.178015
0.179272
0.181315
0.183429
0.185528
0.18744
0.189242
0.191429
0.193753
0.196311
0.198682
0.201082
0.203747
0.206405
0.209684
0.213638
0.218275
0.222492
0.227345
0.231874
0.155979
0.162748
0.16922
0.171457
0.173041
0.173518
0.173722
0.173889
0.17405
0.174244
0.174425
0.174639
0.174909
0.175154
0.175423
0.175671
0.175934
0.176179
0.176397
0.176606
0.176804
0.176995
0.177172
0.177334
0.177507
0.177657
0.177795
0.177932
0.178078
0.178211
0.178352
0.178486
0.178614
0.178741
0.178864
0.17898
0.179097
0.17921
0.179319
0.179425
0.179527
0.179624
0.179716
0.179803
0.179883
0.179956
0.180026
0.180089
0.180151
0.180208
0.180262
0.180314
0.180362
0.180408
0.180448
0.180483
0.180513
0.180538
0.180558
0.180574
0.180587
0.180585
0.178596
0.158512
0.146246
0.148031
0.151533
0.155735
0.158145
0.160367
0.162411
0.164185
0.165843
0.16722
0.168647
0.169763
0.171501
0.172627
0.174326
0.176052
0.177415
0.179127
0.180561
0.181823
0.183824
0.185899
0.188177
0.190589
0.192916
0.195488
0.198219
0.200216
0.202575
0.205825
0.209227
0.212976
0.21671
0.220572
0.224915
0.230015
0.179915
0.18225
0.183659
0.184574
0.185043
0.185272
0.185307
0.185233
0.185145
0.185043
0.184985
0.184948
0.184944
0.184955
0.184971
0.184973
0.184983
0.184986
0.184972
0.184962
0.184943
0.184919
0.184881
0.184842
0.184792
0.184752
0.1847
0.184649
0.184605
0.184554
0.184501
0.184452
0.18441
0.184371
0.184332
0.184296
0.184265
0.184232
0.184204
0.18418
0.184154
0.184132
0.184117
0.184088
0.184053
0.184029
0.183992
0.183952
0.183901
0.183846
0.183783
0.183714
0.183641
0.183561
0.183471
0.183375
0.183261
0.183139
0.183017
0.182898
0.182775
0.182646
0.179815
0.158502
0.147719
0.150293
0.15358
0.157676
0.160043
0.162635
0.164933
0.166808
0.168015
0.169176
0.170786
0.172079
0.173387
0.175156
0.176903
0.178769
0.180022
0.181983
0.183407
0.1856
0.187474
0.189127
0.191538
0.193553
0.195645
0.197716
0.199747
0.201696
0.204733
0.208225
0.210896
0.215014
0.218839
0.22269
0.226515
0.230959
0.230847
0.231457
0.231808
0.231129
0.230305
0.229326
0.228195
0.227063
0.226013
0.225098
0.224309
0.223664
0.223105
0.222576
0.222068
0.221568
0.221071
0.220564
0.220049
0.219524
0.218994
0.218455
0.217911
0.217364
0.216819
0.216276
0.215737
0.215205
0.214677
0.214156
0.213637
0.21313
0.212625
0.212119
0.211635
0.211139
0.210658
0.2102
0.209746
0.209305
0.208823
0.208374
0.2079
0.20743
0.206949
0.206491
0.20604
0.20555
0.205057
0.204584
0.204081
0.20356
0.203033
0.202502
0.201947
0.201374
0.200779
0.200161
0.199519
0.19885
0.198161
0.197411
0.196145
0.18236
0.160317
0.159821
0.16432
0.167207
0.170606
0.172957
0.175212
0.176367
0.178026
0.179498
0.180769
0.181998
0.182815
0.183869
0.18499
0.186277
0.18713
0.188352
0.189758
0.191428
0.192666
0.194346
0.195826
0.197351
0.199072
0.200179
0.202464
0.203745
0.205962
0.207896
0.210759
0.213995
0.217438
0.221658
0.225065
0.23051
0.424864
0.424825
0.424644
0.424735
0.423359
0.421153
0.418312
0.415128
0.412129
0.409179
0.406646
0.404271
0.402108
0.400117
0.398189
0.396323
0.394489
0.392688
0.390892
0.389061
0.387243
0.385406
0.383499
0.381598
0.37968
0.377789
0.37589
0.373982
0.372083
0.370195
0.368271
0.366377
0.364469
0.362578
0.360632
0.358763
0.356892
0.354997
0.35305
0.351148
0.349283
0.347428
0.345513
0.343664
0.341747
0.339916
0.337926
0.336058
0.334077
0.332048
0.330124
0.328094
0.32614
0.324103
0.322021
0.319978
0.317903
0.315634
0.313392
0.311042
0.308519
0.305769
0.302198
0.287743
0.256013
0.246945
0.252744
0.256237
0.259115
0.260741
0.262096
0.262441
0.26285
0.262755
0.262828
0.262585
0.262495
0.262805
0.262374
0.261891
0.261477
0.261405
0.260578
0.260564
0.260079
0.259337
0.25851
0.257866
0.256711
0.256109
0.25557
0.254112
0.252157
0.250871
0.249911
0.247847
0.246627
0.245668
0.242433
0.239388
1.06289e-29
4.56701e-27
5.39951e-24
1.45012e-22
2.55017e-22
3.12327e-21
2.65022e-20
7.25276e-20
1.5632e-18
1.03517e-17
6.4258e-18
4.09115e-15
8.22052e-13
1.47988e-11
8.33235e-11
1.96446e-10
9.76078e-10
8.18261e-10
1.95459e-09
2.18834e-09
5.12485e-09
7.76411e-09
1.63114e-07
3.84017e-06
2.6342e-05
6.91546e-05
0.000109349
0.000142066
0.000188651
0.000355523
0.000417254
0.00035501
0.000472992
0.000549613
0.000685005
0.000608385
0.000646461
0.000801375
0.00220363
0.0119068
0.0321211
0.0463314
0.050397
0.0523765
0.0535107
0.05457
0.0556153
0.0567259
0.0578265
0.0589378
0.0601058
0.0612736
0.0624735
0.0636882
0.0649439
0.0662502
0.0675734
0.0689766
0.0704165
0.0713489
0.0650281
0.0567414
0.0564474
0.0598936
0.0628673
0.0653578
0.067931
0.070041
0.0722343
0.0743086
0.0764197
0.0785512
0.080882
0.0831248
0.085552
0.088075
0.090702
0.093404
0.0962255
0.0990903
0.102307
0.105595
0.109052
0.112697
0.116371
0.120295
0.124698
0.12903
0.134134
0.139439
0.145225
0.150775
0.15712
0.164324
0.171647
0.179457
0.188489
0.198734
0.21067
0.222507
0.424864
0.424825
0.424644
0.424735
0.423359
0.421153
0.418312
0.415128
0.412129
0.409179
0.406646
0.404271
0.402108
0.400117
0.398189
0.396323