/*--------------------------------*- C++ -*----------------------------------*\
| =========                 |                                                 |
| \\      /  F ield         | foam-extend: Open Source CFD                    |
|  \\    /   O peration     | Version:     5.0                                |
|   \\  /    A nd           | Web:         http://www.foam-extend.org         |
|    \\/     M anipulation  |                                                 |
\*---------------------------------------------------------------------------*/
FoamFile
{
    version     2.0;
    format      ascii;
    class       volScalarField;
    location    "8000";
    object      S.oil;
}
// * * * * * * * * * * * * * * * * * * * * * * * * * * * * * * * * * * * * * //

dimensions      [0 0 0 0 0 0 0];

internalField   nonuniform List<scalar> 
1000
(
1
1
1
1
1
1
1
1
1
1
1
1
1
1
1
1
1
1
1
1
1
1
1
0.999996
0.999974
0.999931
0.999891
0.999858
0.999811
0.999644
0.999583
0.999645
0.999527
0.99945
0.999315
0.999392
0.999354
0.999199
0.997796
0.988093
0.967879
0.953669
0.949603
0.947624
0.946489
0.94543
0.944385
0.943274
0.942174
0.941062
0.939894
0.938726
0.937527
0.936312
0.935056
0.93375
0.932427
0.931023
0.929566
0.920166
0.811386
0.637802
0.533511
0.462178
0.432095
0.412611
0.393648
0.381866
0.370068
0.360837
0.352146
0.344248
0.334959
0.327951
0.319962
0.312068
0.304167
0.296581
0.288881
0.281957
0.272872
0.26455
0.256004
0.247227
0.239717
0.23157
0.221212
0.213095
0.201153
0.189645
0.176811
0.167541
0.155574
0.141069
0.128362
0.115504
0.0991728
0.0802499
0.057118
0.0387168
1
1
1
1
1
1
1
1
1
1
1
0.999998
0.999981
0.999935
0.999875
0.999865
0.999715
0.999719
0.999634
0.999611
0.999431
0.999245
0.99257
0.969244
0.947065
0.937546
0.933502
0.931161
0.929299
0.92743
0.925616
0.923689
0.921806
0.919877
0.917922
0.915935
0.913906
0.911933
0.910039
0.908432
0.907019
0.905586
0.904249
0.902971
0.9017
0.900373
0.899049
0.897682
0.896297
0.894904
0.893533
0.892173
0.890842
0.889478
0.888222
0.887004
0.885876
0.884839
0.884028
0.883368
0.843353
0.667123
0.546311
0.483687
0.445744
0.418434
0.404554
0.387673
0.377662
0.368105
0.359205
0.349472
0.339796
0.32912
0.320091
0.312418
0.305647
0.299054
0.290557
0.283092
0.272603
0.265221
0.257036
0.246142
0.238346
0.230523
0.218739
0.208803
0.198953
0.190102
0.177797
0.164394
0.148957
0.136704
0.125372
0.111153
0.0936547
0.0767215
0.0592887
0.040769
0.999975
0.99994
0.999854
0.999787
0.999789
0.999701
0.999637
0.999487
0.999247
0.998926
0.997067
0.976592
0.940555
0.926107
0.919262
0.916001
0.913179
0.9105
0.907872
0.90519
0.902442
0.899809
0.89732
0.895104
0.892842
0.890735
0.88895
0.887347
0.885789
0.884251
0.88273
0.881232
0.879759
0.878316
0.876909
0.875553
0.874229
0.87299
0.871877
0.870927
0.870003
0.869017
0.868057
0.867
0.86602
0.865021
0.863978
0.862953
0.861971
0.861007
0.860037
0.859083
0.858151
0.857294
0.856521
0.855863
0.855326
0.854892
0.854728
0.855041
0.85444
0.803218
0.657461
0.54163
0.488454
0.446586
0.419162
0.403889
0.390906
0.380217
0.36839
0.356603
0.347947
0.341058
0.330952
0.322309
0.312986
0.304022
0.298019
0.290058
0.281161
0.271341
0.261098
0.253174
0.242547
0.23282
0.223617
0.212846
0.200517
0.189127
0.175302
0.165991
0.155244
0.142678
0.130185
0.117746
0.10371
0.0840219
0.0688129
0.0467612
0.930867
0.913228
0.905048
0.900363
0.899061
0.897964
0.896467
0.894533
0.892149
0.889341
0.886406
0.883753
0.88086
0.877945
0.875515
0.873531
0.871738
0.869987
0.868332
0.866743
0.86524
0.863823
0.86256
0.861423
0.860318
0.859183
0.858074
0.856975
0.85589
0.85485
0.853833
0.85282
0.851823
0.850882
0.84994
0.849039
0.84818
0.847377
0.846604
0.845872
0.845215
0.844544
0.84383
0.843144
0.842469
0.841754
0.841093
0.840409
0.839764
0.839139
0.838568
0.837956
0.837428
0.836921
0.836481
0.836096
0.835734
0.83553
0.835419
0.835577
0.835946
0.824949
0.702242
0.566301
0.493832
0.447983
0.424862
0.400402
0.386326
0.37203
0.359965
0.351947
0.344171
0.335899
0.329216
0.319433
0.311845
0.301921
0.294801
0.287315
0.279321
0.272529
0.263721
0.254434
0.245419
0.236687
0.225748
0.215236
0.203098
0.19092
0.179008
0.169412
0.16016
0.14477
0.129462
0.115787
0.0974886
0.0833492
0.0654587
0.0462898
0.85477
0.855615
0.85634
0.857134
0.857638
0.857791
0.85749
0.856778
0.855874
0.854828
0.853655
0.852523
0.851348
0.850136
0.848962
0.847852
0.846802
0.845799
0.844847
0.843946
0.843094
0.842294
0.841547
0.840844
0.840171
0.839477
0.8388
0.83814
0.837489
0.836843
0.836209
0.835613
0.835011
0.83444
0.833888
0.83337
0.832846
0.832349
0.831884
0.831431
0.831019
0.830599
0.830199
0.829807
0.829403
0.829001
0.828612
0.828233
0.82788
0.827526
0.827182
0.826883
0.826595
0.826366
0.826142
0.825972
0.825875
0.825798
0.825785
0.825906
0.826023
0.825081
0.781541
0.623956
0.514338
0.466537
0.430958
0.40475
0.384652
0.37497
0.364177
0.352331
0.342402
0.332399
0.323571
0.315995
0.306939
0.300305
0.290459
0.283767
0.276636
0.267443
0.257363
0.24652
0.238484
0.230893
0.221789
0.213977
0.202534
0.19388
0.185319
0.173181
0.158846
0.143714
0.130177
0.114206
0.099328
0.0797479
0.0577346
0.036138
0.840425
0.838368
0.837262
0.836832
0.836904
0.83696
0.836933
0.836875
0.836538
0.836195
0.835775
0.835286
0.834709
0.834134
0.833534
0.832962
0.832409
0.831864
0.831342
0.830857
0.830406
0.829989
0.829589
0.829201
0.82882
0.828452
0.828077
0.827728
0.82738
0.827034
0.826694
0.826364
0.826047
0.82574
0.82544
0.825158
0.824887
0.824626
0.824372
0.824132
0.8239
0.823681
0.823472
0.823258
0.823057
0.822863
0.822662
0.822473
0.822279
0.822092
0.821913
0.82174
0.821577
0.821423
0.821282
0.821163
0.821058
0.820987
0.820946
0.820929
0.820931
0.820945
0.815098
0.729641
0.580083
0.485231
0.438742
0.40709
0.386065
0.374187
0.363784
0.351328
0.342802
0.333391
0.326879
0.318931
0.311402
0.304938
0.29592
0.289058
0.279687
0.273454
0.263474
0.253155
0.242834
0.233489
0.224778
0.214427
0.203586
0.191764
0.180917
0.170129
0.15814
0.146205
0.131766
0.114557
0.0945302
0.0762701
0.0552933
0.0355963
0.844021
0.837252
0.83078
0.828543
0.826959
0.826482
0.826278
0.826111
0.82595
0.825756
0.825575
0.825361
0.825091
0.824846
0.824577
0.824329
0.824066
0.823821
0.823603
0.823394
0.823196
0.823005
0.822828
0.822666
0.822493
0.822343
0.822205
0.822068
0.821922
0.821789
0.821648
0.821514
0.821386
0.821259
0.821136
0.82102
0.820903
0.82079
0.820681
0.820575
0.820473
0.820376
0.820284
0.820197
0.820117
0.820044
0.819974
0.819911
0.819849
0.819792
0.819738
0.819686
0.819638
0.819592
0.819552
0.819517
0.819487
0.819462
0.819442
0.819426
0.819413
0.819385
0.810302
0.701898
0.576408
0.477496
0.442018
0.408759
0.391993
0.377373
0.364579
0.353888
0.344174
0.336156
0.327939
0.321584
0.311993
0.30568
0.296576
0.287467
0.280364
0.271541
0.264268
0.257913
0.24824
0.238339
0.227527
0.216273
0.205492
0.193664
0.181132
0.1719
0.161075
0.146533
0.131558
0.115048
0.0988913
0.0824135
0.0641145
0.0427268
0.820085
0.81775
0.816341
0.815426
0.814957
0.814728
0.814693
0.814767
0.814855
0.814957
0.815015
0.815052
0.815056
0.815045
0.815029
0.815027
0.815017
0.815014
0.815028
0.815038
0.815057
0.815081
0.815119
0.815158
0.815208
0.815248
0.8153
0.815351
0.815395
0.815446
0.815499
0.815548
0.81559
0.815629
0.815668
0.815704
0.815735
0.815768
0.815796
0.81582
0.815846
0.815868
0.815883
0.815912
0.815947
0.815971
0.816008
0.816048
0.816099
0.816154
0.816217
0.816286
0.816359
0.816439
0.816529
0.816625
0.816739
0.816861
0.816983
0.817102
0.817225
0.817277
0.804819
0.687359
0.549979
0.479169
0.444924
0.412358
0.395481
0.378398
0.363875
0.352368
0.344797
0.337742
0.328431
0.321001
0.313681
0.304002
0.294543
0.284557
0.277756
0.267498
0.259936
0.248783
0.239308
0.23094
0.219173
0.209293
0.19914
0.189214
0.179451
0.170325
0.15637
0.140471
0.128065
0.109579
0.0923953
0.0752259
0.0584741
0.0391364
0.769153
0.768543
0.768192
0.768871
0.769695
0.770674
0.771805
0.772937
0.773987
0.774902
0.775691
0.776336
0.776895
0.777424
0.777932
0.778432
0.778929
0.779436
0.779951
0.780476
0.781006
0.781545
0.782089
0.782636
0.783181
0.783724
0.784263
0.784795
0.785323
0.785844
0.786363
0.78687
0.787375
0.787881
0.788365
0.788861
0.789342
0.7898
0.790254
0.790695
0.791177
0.791626
0.7921
0.79257
0.793051
0.793509
0.79396
0.79445
0.794943
0.795416
0.795919
0.79644
0.796967
0.797498
0.798053
0.798626
0.799221
0.799839
0.800481
0.80115
0.801839
0.802588
0.801801
0.745351
0.590077
0.505387
0.449245
0.42621
0.401908
0.385907
0.370991
0.362518
0.351238
0.341005
0.331851
0.322916
0.316064
0.308107
0.299952
0.290991
0.284053
0.275423
0.265961
0.255233
0.246558
0.235895
0.226147
0.216168
0.205332
0.19721
0.184011
0.175382
0.162822
0.15147
0.136268
0.119713
0.102342
0.082057
0.0658522
0.0416254
0.575136
0.575175
0.575356
0.575265
0.576641
0.578847
0.581688
0.584872
0.587871
0.590821
0.593354
0.595729
0.597892
0.599883
0.601811
0.603677
0.605511
0.607312
0.609108
0.610939
0.612757
0.614594
0.616501
0.618402
0.62032
0.622211
0.62411
0.626018
0.627917
0.629805
0.631729
0.633623
0.635531
0.637422
0.639368
0.641237
0.643108
0.645003
0.64695
0.648852
0.650717
0.652572
0.654487
0.656336
0.658253
0.660084
0.662074
0.663942
0.665923
0.667952
0.669876
0.671906
0.67386
0.675897
0.677979
0.680022
0.682097
0.684366
0.686608
0.688958
0.691481
0.69423
0.697333
0.677459
0.578297
0.46561
0.4104
0.388507
0.371099
0.359232
0.348165
0.340432
0.332187
0.32556
0.317892
0.311026
0.303057
0.293405
0.286402
0.279406
0.27157
0.262241
0.255361
0.24523
0.236213
0.22781
0.21921
0.209298
0.200534
0.188733
0.17602
0.165634
0.156439
0.143566
0.128097
0.11522
0.0971023
0.0754526
0.0597418
0.0402012
)
;

boundaryField
{
    inlet
    {
        type            calculated;
        value           uniform 0;
    }
    outlet
    {
        type            calculated;
        value           nonuniform List<scalar> 10(1 1 0.999975 0.930867 0.85477 0.840425 0.844021 0.820085 0.769153 0.575136);
    }
    walls
    {
        type            calculated;
        value           nonuniform List<scalar> 
2200
(
1
1
1
1
1
1
1
1
1
1
1
1
1
1
1
1
1
1
1
1
1
1
1
0.999996
0.999974
0.999931
0.999891
0.999858
0.999811
0.999644
0.999583
0.999645
0.999527
0.99945
0.999315
0.999392
0.999354
0.999199
0.997796
0.988093
0.967879
0.953669
0.949603
0.947624
0.946489
0.94543
0.944385
0.943274
0.942174
0.941062
0.939894
0.938726
0.937527
0.936312
0.935056
0.93375
0.932427
0.931023
0.929566
0.920166
0.811386
0.637802
0.533511
0.462178
0.432095
0.412611
0.393648
0.381866
0.370068
0.360837
0.352146
0.344248
0.334959
0.327951
0.319962
0.312068
0.304167
0.296581
0.288881
0.281957
0.272872
0.26455
0.256004
0.247227
0.239717
0.23157
0.221212
0.213095
0.201153
0.189645
0.176811
0.167541
0.155574
0.141069
0.128362
0.115504
0.0991728
0.0802499
0.057118
0.0387168
1
1
1
1
1
1
1
1
1
1
1
0.999998
0.999981
0.999935
0.999875
0.999865
0.999715
0.999719
0.999634
0.999611
0.999431
0.999245
0.99257
0.969244
0.947065
0.937546
0.933502
0.931161
0.929299
0.92743
0.925616
0.923689
0.921806
0.919877
0.917922
0.915935
0.913906
0.911933
0.910039
0.908432
0.907019
0.905586
0.904249
0.902971
0.9017
0.900373
0.899049
0.897682
0.896297
0.894904
0.893533
0.892173
0.890842
0.889478
0.888222
0.887004
0.885876
0.884839
0.884028
0.883368
0.843353
0.667123
0.546311
0.483687
0.445744
0.418434
0.404554
0.387673
0.377662
0.368105
0.359205
0.349472
0.339796
0.32912
0.320091
0.312418
0.305647
0.299054
0.290557
0.283092
0.272603
0.265221
0.257036
0.246142
0.238346
0.230523
0.218739
0.208803
0.198953
0.190102
0.177797
0.164394
0.148957
0.136704
0.125372
0.111153
0.0936547
0.0767215
0.0592887
0.040769
0.999975
0.99994
0.999854
0.999787
0.999789
0.999701
0.999637
0.999487
0.999247
0.998926
0.997067
0.976592
0.940555
0.926107
0.919262
0.916001
0.913179
0.9105
0.907872
0.90519
0.902442
0.899809
0.89732
0.895104
0.892842
0.890735
0.88895
0.887347
0.885789
0.884251
0.88273
0.881232
0.879759
0.878316
0.876909
0.875553
0.874229
0.87299
0.871877
0.870927
0.870003
0.869017
0.868057
0.867
0.86602
0.865021
0.863978
0.862953
0.861971
0.861007
0.860037
0.859083
0.858151
0.857294
0.856521
0.855863
0.855326
0.854892
0.854728
0.855041
0.85444
0.803218
0.657461
0.54163
0.488454
0.446586
0.419162
0.403889
0.390906
0.380217
0.36839
0.356603
0.347947
0.341058
0.330952
0.322309
0.312986
0.304022
0.298019
0.290058
0.281161
0.271341
0.261098
0.253174
0.242547
0.23282
0.223617
0.212846
0.200517
0.189127
0.175302
0.165991
0.155244
0.142678
0.130185
0.117746
0.10371
0.0840219
0.0688129
0.0467612
0.930867
0.913228
0.905048
0.900363
0.899061
0.897964
0.896467
0.894533
0.892149
0.889341
0.886406
0.883753
0.88086
0.877945
0.875515
0.873531
0.871738
0.869987
0.868332
0.866743
0.86524
0.863823
0.86256
0.861423
0.860318
0.859183
0.858074
0.856975
0.85589
0.85485
0.853833
0.85282
0.851823
0.850882
0.84994
0.849039
0.84818
0.847377
0.846604
0.845872
0.845215
0.844544
0.84383
0.843144
0.842469
0.841754
0.841093
0.840409
0.839764
0.839139
0.838568
0.837956
0.837428
0.836921
0.836481
0.836096
0.835734
0.83553
0.835419
0.835577
0.835946
0.824949
0.702242
0.566301
0.493832
0.447983
0.424862
0.400402
0.386326
0.37203
0.359965
0.351947
0.344171
0.335899
0.329216
0.319433
0.311845
0.301921
0.294801
0.287315
0.279321
0.272529
0.263721
0.254434
0.245419
0.236687
0.225748
0.215236
0.203098
0.19092
0.179008
0.169412
0.16016
0.14477
0.129462
0.115787
0.0974886
0.0833492
0.0654587
0.0462898
0.85477
0.855615
0.85634
0.857134
0.857638
0.857791
0.85749
0.856778
0.855874
0.854828
0.853655
0.852523
0.851348
0.850136
0.848962
0.847852
0.846802
0.845799
0.844847
0.843946
0.843094
0.842294
0.841547
0.840844
0.840171
0.839477
0.8388
0.83814
0.837489
0.836843
0.836209
0.835613
0.835011
0.83444
0.833888
0.83337
0.832846
0.832349
0.831884
0.831431
0.831019
0.830599
0.830199
0.829807
0.829403
0.829001
0.828612
0.828233
0.82788
0.827526
0.827182
0.826883
0.826595
0.826366
0.826142
0.825972
0.825875
0.825798
0.825785
0.825906
0.826023
0.825081
0.781541
0.623956
0.514338
0.466537
0.430958
0.40475
0.384652
0.37497
0.364177
0.352331
0.342402
0.332399
0.323571
0.315995
0.306939
0.300305
0.290459
0.283767
0.276636
0.267443
0.257363
0.24652
0.238484
0.230893
0.221789
0.213977
0.202534
0.19388
0.185319
0.173181
0.158846
0.143714
0.130177
0.114206
0.099328
0.0797479
0.0577346
0.036138
0.840425
0.838368
0.837262
0.836832
0.836904
0.83696
0.836933
0.836875
0.836538
0.836195
0.835775
0.835286
0.834709
0.834134
0.833534
0.832962
0.832409
0.831864
0.831342
0.830857
0.830406
0.829989
0.829589
0.829201
0.82882
0.828452
0.828077
0.827728
0.82738
0.827034
0.826694
0.826364
0.826047
0.82574
0.82544
0.825158
0.824887
0.824626
0.824372
0.824132
0.8239
0.823681
0.823472
0.823258
0.823057
0.822863
0.822662
0.822473
0.822279
0.822092
0.821913
0.82174
0.821577
0.821423
0.821282
0.821163
0.821058
0.820987
0.820946
0.820929
0.820931
0.820945
0.815098
0.729641
0.580083
0.485231
0.438742
0.40709
0.386065
0.374187
0.363784
0.351328
0.342802
0.333391
0.326879
0.318931
0.311402
0.304938
0.29592
0.289058
0.279687
0.273454
0.263474
0.253155
0.242834
0.233489
0.224778
0.214427
0.203586
0.191764
0.180917
0.170129
0.15814
0.146205
0.131766
0.114557
0.0945302
0.0762701
0.0552933
0.0355963
0.844021
0.837252
0.83078
0.828543
0.826959
0.826482
0.826278
0.826111
0.82595
0.825756
0.825575
0.825361
0.825091
0.824846
0.824577
0.824329
0.824066
0.823821
0.823603
0.823394
0.823196
0.823005
0.822828
0.822666
0.822493
0.822343
0.822205
0.822068
0.821922
0.821789
0.821648
0.821514
0.821386
0.821259
0.821136
0.82102
0.820903
0.82079
0.820681
0.820575
0.820473
0.820376
0.820284
0.820197
0.820117
0.820044
0.819974
0.819911
0.819849
0.819792
0.819738
0.819686
0.819638
0.819592
0.819552
0.819517
0.819487
0.819462
0.819442
0.819426
0.819413
0.819385
0.810302
0.701898
0.576408
0.477496
0.442018
0.408759
0.391993
0.377373
0.364579
0.353888
0.344174
0.336156
0.327939
0.321584
0.311993
0.30568
0.296576
0.287467
0.280364
0.271541
0.264268
0.257913
0.24824
0.238339
0.227527
0.216273
0.205492
0.193664
0.181132
0.1719
0.161075
0.146533
0.131558
0.115048
0.0988913
0.0824135
0.0641145
0.0427268
0.820085
0.81775
0.816341
0.815426
0.814957
0.814728
0.814693
0.814767
0.814855
0.814957
0.815015
0.815052
0.815056
0.815045
0.815029
0.815027
0.815017
0.815014
0.815028
0.815038
0.815057
0.815081
0.815119
0.815158
0.815208
0.815248
0.8153
0.815351
0.815395
0.815446
0.815499
0.815548
0.81559
0.815629
0.815668
0.815704
0.815735
0.815768
0.815796
0.81582
0.815846
0.815868
0.815883
0.815912
0.815947
0.815971
0.816008
0.816048
0.816099
0.816154
0.816217
0.816286
0.816359
0.816439
0.816529
0.816625
0.816739
0.816861
0.816983
0.817102
0.817225
0.817277
0.804819
0.687359
0.549979
0.479169
0.444924
0.412358
0.395481
0.378398
0.363875
0.352368
0.344797
0.337742
0.328431
0.321001
0.313681
0.304002
0.294543
0.284557
0.277756
0.267498
0.259936
0.248783
0.239308
0.23094
0.219173
0.209293
0.19914
0.189214
0.179451
0.170325
0.15637
0.140471
0.128065
0.109579
0.0923953
0.0752259
0.0584741
0.0391364
0.769153
0.768543
0.768192
0.768871
0.769695
0.770674
0.771805
0.772937
0.773987
0.774902
0.775691
0.776336
0.776895
0.777424
0.777932
0.778432
0.778929
0.779436
0.779951
0.780476
0.781006
0.781545
0.782089
0.782636
0.783181
0.783724
0.784263
0.784795
0.785323
0.785844
0.786363
0.78687
0.787375
0.787881
0.788365
0.788861
0.789342
0.7898
0.790254
0.790695
0.791177
0.791626
0.7921
0.79257
0.793051
0.793509
0.79396
0.79445
0.794943
0.795416
0.795919
0.79644
0.796967
0.797498
0.798053
0.798626
0.799221
0.799839
0.800481
0.80115
0.801839
0.802588
0.801801
0.745351
0.590077
0.505387
0.449245
0.42621
0.401908
0.385907
0.370991
0.362518
0.351238
0.341005
0.331851
0.322916
0.316064
0.308107
0.299952
0.290991
0.284053
0.275423
0.265961
0.255233
0.246558
0.235895
0.226147
0.216168
0.205332
0.19721
0.184011
0.175382
0.162822
0.15147
0.136268
0.119713
0.102342
0.082057
0.0658522
0.0416254
0.575136
0.575175
0.575356
0.575265
0.576641
0.578847
0.581688
0.584872
0.587871
0.590821
0.593354
0.595729
0.597892
0.599883
0.601811
0.603677
0.605511
0.607312
0.609108
0.610939
0.612757
0.614594
0.616501
0.618402
0.62032
0.622211
0.62411
0.626018
0.627917
0.629805
0.631729
0.633623
0.635531
0.637422
0.639368
0.641237
0.643108
0.645003
0.64695
0.648852
0.650717
0.652572
0.654487
0.656336
0.658253
0.660084
0.662074
0.663942
0.665923
0.667952
0.669876
0.671906
0.67386
0.675897
0.677979
0.680022
0.682097
0.684366
0.686608
0.688958
0.691481
0.69423
0.697333
0.677459
0.578297
0.46561
0.4104
0.388507
0.371099
0.359232
0.348165
0.340432
0.332187
0.32556
0.317892
0.311026
0.303057
0.293405
0.286402
0.279406
0.27157
0.262241
0.255361
0.24523
0.236213
0.22781
0.21921
0.209298
0.200534
0.188733
0.17602
0.165634
0.156439
0.143566
0.128097
0.11522
0.0971023
0.0754526
0.0597418
0.0402012
1
1
1
1
1
1
1
1
1
1
1
1
1
1
1
1
1
1
1
1
1
1
1
0.999996
0.999974
0.999931
0.999891
0.999858
0.999811
0.999644
0.999583
0.999645
0.999527
0.99945
0.999315
0.999392
0.999354
0.999199
0.997796
0.988093
0.967879
0.953669
0.949603
0.947624
0.946489
0.94543
0.944385
0.943274
0.942174
0.941062
0.939894
0.938726
0.937527
0.936312
0.935056
0.93375
0.932427
0.931023
0.929566
0.920166
0.811386
0.637802
0.533511
0.462178
0.432095
0.412611
0.393648
0.381866
0.370068
0.360837
0.352146
0.344248
0.334959
0.327951
0.319962
0.312068
0.304167
0.296581
0.288881
0.281957
0.272872
0.26455
0.256004
0.247227
0.239717
0.23157
0.221212
0.213095
0.201153
0.189645
0.176811
0.167541
0.155574
0.141069
0.128362
0.115504
0.0991728
0.0802499
0.057118
0.0387168
1
1
1
1
1
1
1
1
1
1
1
0.999998
0.999981
0.999935
0.999875
0.999865
0.999715
0.999719
0.999634
0.999611
0.999431
0.999245
0.99257
0.969244
0.947065
0.937546
0.933502
0.931161
0.929299
0.92743
0.925616
0.923689
0.921806
0.919877
0.917922
0.915935
0.913906
0.911933
0.910039
0.908432
0.907019
0.905586
0.904249
0.902971
0.9017
0.900373
0.899049
0.897682
0.896297
0.894904
0.893533
0.892173
0.890842
0.889478
0.888222
0.887004
0.885876
0.884839
0.884028
0.883368
0.843353
0.667123
0.546311
0.483687
0.445744
0.418434
0.404554
0.387673
0.377662
0.368105
0.359205
0.349472
0.339796
0.32912
0.320091
0.312418
0.305647
0.299054
0.290557
0.283092
0.272603
0.265221
0.257036
0.246142
0.238346
0.230523
0.218739
0.208803
0.198953
0.190102
0.177797
0.164394
0.148957
0.136704
0.125372
0.111153
0.0936547
0.0767215
0.0592887
0.040769
0.999975
0.99994
0.999854
0.999787
0.999789
0.999701
0.999637
0.999487
0.999247
0.998926
0.997067
0.976592
0.940555
0.926107
0.919262
0.916001
0.913179
0.9105
0.907872
0.90519
0.902442
0.899809
0.89732
0.895104
0.892842
0.890735
0.88895
0.887347
0.885789
0.884251
0.88273
0.881232
0.879759
0.878316
0.876909
0.875553
0.874229
0.87299
0.871877
0.870927
0.870003
0.869017
0.868057
0.867
0.86602
0.865021
0.863978
0.862953
0.861971
0.861007
0.860037
0.859083
0.858151
0.857294
0.856521
0.855863
0.855326
0.854892
0.854728
0.855041
0.85444
0.803218
0.657461
0.54163
0.488454
0.446586
0.419162
0.403889
0.390906
0.380217
0.36839
0.356603
0.347947
0.341058
0.330952
0.322309
0.312986
0.304022
0.298019
0.290058
0.281161
0.271341
0.261098
0.253174
0.242547
0.23282
0.223617
0.212846
0.200517
0.189127
0.175302
0.165991
0.155244
0.142678
0.130185
0.117746
0.10371
0.0840219
0.0688129
0.0467612
0.930867
0.913228
0.905048
0.900363
0.899061
0.897964
0.896467
0.894533
0.892149
0.889341
0.886406
0.883753
0.88086
0.877945
0.875515
0.873531
0.871738
0.869987
0.868332
0.866743
0.86524
0.863823
0.86256
0.861423
0.860318
0.859183
0.858074
0.856975
0.85589
0.85485
0.853833
0.85282
0.851823
0.850882
0.84994
0.849039
0.84818
0.847377
0.846604
0.845872
0.845215
0.844544
0.84383
0.843144
0.842469
0.841754
0.841093
0.840409
0.839764
0.839139
0.838568
0.837956
0.837428
0.836921
0.836481
0.836096
0.835734
0.83553
0.835419
0.835577
0.835946
0.824949
0.702242
0.566301
0.493832
0.447983
0.424862
0.400402
0.386326
0.37203
0.359965
0.351947
0.344171
0.335899
0.329216
0.319433
0.311845
0.301921
0.294801
0.287315
0.279321
0.272529
0.263721
0.254434
0.245419
0.236687
0.225748
0.215236
0.203098
0.19092
0.179008
0.169412
0.16016
0.14477
0.129462
0.115787
0.0974886
0.0833492
0.0654587
0.0462898
0.85477
0.855615
0.85634
0.857134
0.857638
0.857791
0.85749
0.856778
0.855874
0.854828
0.853655
0.852523
0.851348
0.850136
0.848962
0.847852
0.846802
0.845799
0.844847
0.843946
0.843094
0.842294
0.841547
0.840844
0.840171
0.839477
0.8388
0.83814
0.837489
0.836843
0.836209
0.835613
0.835011
0.83444
0.833888
0.83337
0.832846
0.832349
0.831884
0.831431
0.831019
0.830599
0.830199
0.829807
0.829403
0.829001
0.828612
0.828233
0.82788
0.827526
0.827182
0.826883
0.826595
0.826366
0.826142
0.825972
0.825875
0.825798
0.825785
0.825906
0.826023
0.825081
0.781541
0.623956
0.514338
0.466537
0.430958
0.40475
0.384652
0.37497
0.364177
0.352331
0.342402
0.332399
0.323571
0.315995
0.306939
0.300305
0.290459
0.283767
0.276636
0.267443
0.257363
0.24652
0.238484
0.230893
0.221789
0.213977
0.202534
0.19388
0.185319
0.173181
0.158846
0.143714
0.130177
0.114206
0.099328
0.0797479
0.0577346
0.036138
0.840425
0.838368
0.837262
0.836832
0.836904
0.83696
0.836933
0.836875
0.836538
0.836195
0.835775
0.835286
0.834709
0.834134
0.833534
0.832962
0.832409
0.831864
0.831342
0.830857
0.830406
0.829989
0.829589
0.829201
0.82882
0.828452
0.828077
0.827728
0.82738
0.827034
0.826694
0.826364
0.826047
0.82574
0.82544
0.825158
0.824887
0.824626
0.824372
0.824132
0.8239
0.823681
0.823472
0.823258
0.823057
0.822863
0.822662
0.822473
0.822279
0.822092
0.821913
0.82174
0.821577
0.821423
0.821282
0.821163
0.821058
0.820987
0.820946
0.820929
0.820931
0.820945
0.815098
0.729641
0.580083
0.485231
0.438742
0.40709
0.386065
0.374187
0.363784
0.351328
0.342802
0.333391
0.326879
0.318931
0.311402
0.304938
0.29592
0.289058
0.279687
0.273454
0.263474
0.253155
0.242834
0.233489
0.224778
0.214427
0.203586
0.191764
0.180917
0.170129
0.15814
0.146205
0.131766
0.114557
0.0945302
0.0762701
0.0552933
0.0355963
0.844021
0.837252
0.83078
0.828543
0.826959
0.826482
0.826278
0.826111
0.82595
0.825756
0.825575
0.825361
0.825091
0.824846
0.824577
0.824329
0.824066
0.823821
0.823603
0.823394
0.823196
0.823005
0.822828
0.822666
0.822493
0.822343
0.822205
0.822068
0.821922
0.821789
0.821648
0.821514
0.821386
0.821259
0.821136
0.82102
0.820903
0.82079
0.820681
0.820575
0.820473
0.820376
0.820284
0.820197
0.820117
0.820044
0.819974
0.819911
0.819849
0.819792
0.819738
0.819686
0.819638
0.819592
0.819552
0.819517
0.819487
0.819462
0.819442
0.819426
0.819413
0.819385
0.810302
0.701898
0.576408
0.477496
0.442018
0.408759
0.391993
0.377373
0.364579
0.353888
0.344174
0.336156
0.327939
0.321584
0.311993
0.30568
0.296576
0.287467
0.280364
0.271541
0.264268
0.257913
0.24824
0.238339
0.227527
0.216273
0.205492
0.193664
0.181132
0.1719
0.161075
0.146533
0.131558
0.115048
0.0988913
0.0824135
0.0641145
0.0427268
0.820085
0.81775
0.816341
0.815426
0.814957
0.814728
0.814693
0.814767
0.814855
0.814957
0.815015
0.815052
0.815056
0.815045
0.815029
0.815027
0.815017
0.815014
0.815028
0.815038
0.815057
0.815081
0.815119
0.815158
0.815208
0.815248
0.8153
0.815351
0.815395
0.815446
0.815499
0.815548
0.81559
0.815629
0.815668
0.815704
0.815735
0.815768
0.815796
0.81582
0.815846
0.815868
0.815883
0.815912
0.815947
0.815971
0.816008
0.816048
0.816099
0.816154
0.816217
0.816286
0.816359
0.816439
0.816529
0.816625
0.816739
0.816861
0.816983
0.817102
0.817225
0.817277
0.804819
0.687359
0.549979
0.479169
0.444924
0.412358
0.395481
0.378398
0.363875
0.352368
0.344797
0.337742
0.328431
0.321001
0.313681
0.304002
0.294543
0.284557
0.277756
0.267498
0.259936
0.248783
0.239308
0.23094
0.219173
0.209293
0.19914
0.189214
0.179451
0.170325
0.15637
0.140471
0.128065
0.109579
0.0923953
0.0752259
0.0584741
0.0391364
0.769153
0.768543
0.768192
0.768871
0.769695
0.770674
0.771805
0.772937
0.773987
0.774902
0.775691
0.776336
0.776895
0.777424
0.777932
0.778432
0.778929
0.779436
0.779951
0.780476
0.781006
0.781545
0.782089
0.782636
0.783181
0.783724
0.784263
0.784795
0.785323
0.785844
0.786363
0.78687
0.787375
0.787881
0.788365
0.788861
0.789342
0.7898
0.790254
0.790695
0.791177
0.791626
0.7921
0.79257
0.793051
0.793509
0.79396
0.79445
0.794943
0.795416
0.795919
0.79644
0.796967
0.797498
0.798053
0.798626
0.799221
0.799839
0.800481
0.80115
0.801839
0.802588
0.801801
0.745351
0.590077
0.505387
0.449245
0.42621
0.401908
0.385907
0.370991
0.362518
0.351238
0.341005
0.331851
0.322916
0.316064
0.308107
0.299952
0.290991
0.284053
0.275423
0.265961
0.255233
0.246558
0.235895
0.226147
0.216168
0.205332
0.19721
0.184011
0.175382
0.162822
0.15147
0.136268
0.119713
0.102342
0.082057
0.0658522
0.0416254
0.575136
0.575175
0.575356
0.575265
0.576641
0.578847
0.581688
0.584872
0.587871
0.590821
0.593354
0.595729
0.597892
0.599883
0.601811
0.603677
0.605511
0.607312
0.609108
0.610939
0.612757
0.614594
0.616501
0.618402
0.62032
0.622211
0.62411
0.626018
0.627917
0.629805
0.631729
0.633623
0.635531
0.637422
0.639368
0.641237
0.643108
0.645003
0.64695
0.648852
0.650717
0.652572
0.654487
0.656336
0.658253
0.660084
0.662074
0.663942
0.665923
0.667952
0.669876
0.671906
0.67386
0.675897
0.677979
0.680022
0.682097
0.684366
0.686608
0.688958
0.691481
0.69423
0.697333
0.677459
0.578297
0.46561
0.4104
0.388507
0.371099
0.359232
0.348165
0.340432
0.332187
0.32556
0.317892
0.311026
0.303057
0.293405
0.286402
0.279406
0.27157
0.262241
0.255361
0.24523
0.236213
0.22781
0.21921
0.209298
0.200534
0.188733
0.17602
0.165634
0.156439
0.143566
0.128097
0.11522
0.0971023
0.0754526
0.0597418
0.0402012
1
1
1
1
1
1
1
1
1
1
1
1
1
1
1
1
1
1
1
1
1
1
1
0.999996
0.999974
0.999931
0.999891
0.999858
0.999811
0.999644
0.999583
0.999645
0.999527
0.99945
0.999315
0.999392
0.999354
0.999199
0.997796
0.988093
0.967879
0.953669
0.949603
0.947624
0.946489
0.94543
0.944385
0.943274
0.942174
0.941062
0.939894
0.938726
0.937527
0.936312
0.935056
0.93375
0.932427
0.931023
0.929566
0.920166
0.811386
0.637802
0.533511
0.462178
0.432095
0.412611
0.393648
0.381866
0.370068
0.360837
0.352146
0.344248
0.334959
0.327951
0.319962
0.312068
0.304167
0.296581
0.288881
0.281957
0.272872
0.26455
0.256004
0.247227
0.239717
0.23157
0.221212
0.213095
0.201153
0.189645
0.176811
0.167541
0.155574
0.141069
0.128362
0.115504
0.0991728
0.0802499
0.057118
0.0387168
0.575136
0.575175
0.575356
0.575265
0.576641
0.578847
0.581688
0.584872
0.587871
0.590821
0.593354
0.595729
0.597892
0.599883
0.601811
0.603677
0.605511
0.607312
0.609108
0.610939
0.612757
0.614594
0.616501
0.618402
0.62032
0.622211
0.62411
0.626018
0.627917
0.629805
0.631729
0.633623
0.635531
0.637422
0.639368
0.641237
0.643108
0.645003
0.64695
0.648852
0.650717
0.652572
0.654487
0.656336
0.658253
0.660084
0.662074
0.663942
0.665923
0.667952
0.669876
0.671906
0.67386
0.675897
0.677979
0.680022
0.682097
0.684366
0.686608
0.688958
0.691481
0.69423
0.697333
0.677459
0.578297
0.46561
0.4104
0.388507
0.371099
0.359232
0.348165
0.340432
0.332187
0.32556
0.317892
0.311026
0.303057
0.293405
0.286402
0.279406
0.27157
0.262241
0.255361
0.24523
0.236213
0.22781
0.21921
0.209298
0.200534
0.188733
0.17602
0.165634
0.156439
0.143566
0.128097
0.11522
0.0971023
0.0754526
0.0597418
0.0402012
)
;
    }
}


// ************************************************************************* //
