/*--------------------------------*- C++ -*----------------------------------*\
| =========                 |                                                 |
| \\      /  F ield         | foam-extend: Open Source CFD                    |
|  \\    /   O peration     | Version:     5.0                                |
|   \\  /    A nd           | Web:         http://www.foam-extend.org         |
|    \\/     M anipulation  |                                                 |
\*---------------------------------------------------------------------------*/
FoamFile
{
    version     2.0;
    format      ascii;
    class       volVectorField;
    location    "8000";
    object      U.gas;
}
// * * * * * * * * * * * * * * * * * * * * * * * * * * * * * * * * * * * * * //

dimensions      [0 1 -1 0 0 0 0];

internalField   nonuniform List<vector> 
1000
(
(0 1.05434e-46 -5.13932e-23)
(0 1.67599e-40 -1.73778e-20)
(0 1.32025e-37 -1.2741e-17)
(0 5.56011e-37 -2.93942e-16)
(0 6.73738e-35 -3.72106e-16)
(0 4.90622e-33 -2.84754e-15)
(0 4.12507e-32 -1.87249e-14)
(0 1.70123e-29 -5.33906e-14)
(0 7.62469e-28 -6.49034e-13)
(0 1.01941e-27 -3.91682e-12)
(0 9.40661e-23 -8.23537e-12)
(0 4.42368e-18 -1.38158e-08)
(0 1.39963e-15 -1.82979e-06)
(0 3.1157e-14 -2.08719e-05)
(0 1.40402e-13 -7.61044e-05)
(0 -6.58052e-12 -8.98077e-05)
(0 -6.86737e-12 -0.000239859)
(0 -1.60681e-11 -0.00019717)
(0 -1.54802e-11 -0.000168427)
(0 -4.3379e-11 -0.000147577)
(0 -4.94944e-11 -0.000128923)
(0 -1.27404e-08 -0.00018902)
(0 -3.57248e-07 -0.000921982)
(0 -6.25318e-07 -0.000575406)
(0 -8.22058e-07 -0.000289871)
(0 -1.01368e-06 -0.000162725)
(0 -1.10171e-06 -0.000104378)
(0 -1.27164e-06 -7.43479e-05)
(0 -2.784e-06 -5.9047e-05)
(0 -4.0219e-06 -4.83576e-05)
(0 -3.42453e-06 -4.3267e-05)
(0 -3.2005e-06 -3.65177e-05)
(0 -4.18399e-06 -3.32876e-05)
(0 -5.285e-06 -3.00571e-05)
(0 -5.15848e-06 -2.82417e-05)
(0 -4.21289e-06 -2.58075e-05)
(0 -4.88507e-06 -2.33475e-05)
(0 -2.12968e-05 -2.0535e-05)
(0 -0.000299203 -1.08926e-05)
(0 -0.00035848 -1.88822e-07)
(0 -0.000300362 3.46777e-06)
(0 -0.000368107 7.1032e-06)
(0 -0.000317581 6.69799e-06)
(0 -0.000457762 9.95803e-06)
(0 -0.000345135 7.5472e-06)
(0 -0.000367903 8.05219e-06)
(0 -0.000550663 1.20239e-05)
(0 -0.000421223 9.18029e-06)
(0 -0.000390476 8.48204e-06)
(0 -0.000515543 1.11436e-05)
(0 -0.000425552 9.14893e-06)
(0 -0.000455592 9.72108e-06)
(0 -0.000422092 8.91304e-06)
(0 -0.000473072 9.84884e-06)
(0 -0.000566837 1.15283e-05)
(0 -0.00046664 9.12369e-06)
(0 -0.000663266 1.20137e-05)
(0 -0.000502737 7.69335e-06)
(0 -0.000592346 5.34453e-06)
(0 -0.000618133 1.86583e-07)
(0 -0.000640695 2.13957e-05)
(0 -0.000623765 2.71182e-05)
(0 -0.000491888 1.99943e-05)
(0 -0.000637738 2.04748e-05)
(0 -0.000690234 1.80412e-05)
(0 -0.000552324 1.35314e-05)
(0 -0.000715605 1.54075e-05)
(0 -0.000623121 1.3343e-05)
(0 -0.000736857 1.52184e-05)
(0 -0.000747279 1.51644e-05)
(0 -0.000801933 1.61086e-05)
(0 -0.000658409 1.35457e-05)
(0 -0.000875035 1.78237e-05)
(0 -0.00074779 1.56942e-05)
(0 -0.000758728 1.63677e-05)
(0 -0.000770371 1.69407e-05)
(0 -0.000825862 1.83161e-05)
(0 -0.000838955 1.86223e-05)
(0 -0.000958618 2.14881e-05)
(0 -0.000742518 1.6786e-05)
(0 -0.000832958 1.9394e-05)
(0 -0.000846307 1.97806e-05)
(0 -0.000859374 1.99954e-05)
(0 -0.00103605 2.4714e-05)
(0 -0.000991848 2.42044e-05)
(0 -0.000816575 2.00995e-05)
(0 -0.00108773 2.73417e-05)
(0 -0.000770879 2.04421e-05)
(0 -0.000858119 2.34324e-05)
(0 -0.000833079 2.26906e-05)
(0 -0.00123973 3.34496e-05)
(0 -0.000996803 2.7809e-05)
(0 -0.000876162 2.61156e-05)
(0 -0.00108855 3.30817e-05)
(0 -0.00117381 3.59464e-05)
(0 -0.00101668 3.23365e-05)
(0 -0.000985347 3.33623e-05)
(0 -0.000957265 3.42859e-05)
(0 -0.00142289 5.02706e-05)
(0 -0.00127638 4.52675e-05)
(0 9.26953e-16 -2.93304e-06)
(0 5.43771e-14 -1.77358e-05)
(0 -8.99368e-14 -0.000104488)
(0 -5.08283e-13 -0.000222553)
(0 -4.4393e-12 -0.000218033)
(0 -1.68303e-11 -0.000240292)
(0 -3.28661e-11 -0.000207071)
(0 -1.2624e-10 -0.000163044)
(0 -2.82412e-10 -0.000120787)
(0 -3.28505e-10 -0.000105398)
(0 -2.86814e-07 -0.000595568)
(0 -8.21325e-07 -0.000832104)
(0 -8.00441e-07 -0.000426455)
(0 -1.25119e-06 -0.000241407)
(0 -1.12115e-06 -0.00015096)
(0 -2.24411e-06 -0.000111183)
(0 -2.63183e-06 -8.64666e-05)
(0 -2.66614e-06 -6.98734e-05)
(0 -2.88475e-06 -5.97431e-05)
(0 -3.89772e-06 -5.14443e-05)
(0 -6.12365e-06 -4.55176e-05)
(0 -0.000247953 -3.0973e-05)
(0 -0.0005659 -2.96324e-06)
(0 -0.0004584 3.96357e-06)
(0 -0.000475431 8.70627e-06)
(0 -0.000474554 1.01469e-05)
(0 -0.000467217 1.03606e-05)
(0 -0.000560056 1.25161e-05)
(0 -0.00049312 1.10118e-05)
(0 -0.000708174 1.58076e-05)
(0 -0.000474174 1.05536e-05)
(0 -0.000698901 1.55094e-05)
(0 -0.000637004 1.40695e-05)
(0 -0.000652922 1.43322e-05)
(0 -0.000633808 1.37928e-05)
(0 -0.00051401 1.10154e-05)
(0 -0.000664278 1.38902e-05)
(0 -0.000537559 1.07909e-05)
(0 -0.000598507 1.13908e-05)
(0 -0.000707113 1.33794e-05)
(0 -0.000570561 1.24141e-05)
(0 -0.000695292 1.77204e-05)
(0 -0.000640824 1.72742e-05)
(0 -0.000649512 1.79456e-05)
(0 -0.000852354 2.37505e-05)
(0 -0.000734543 2.05487e-05)
(0 -0.000931157 2.60962e-05)
(0 -0.00100724 2.82553e-05)
(0 -0.0010213 2.86087e-05)
(0 -0.000817173 2.2806e-05)
(0 -0.000786475 2.18232e-05)
(0 -0.000723902 1.99163e-05)
(0 -0.00107481 2.91888e-05)
(0 -0.000679023 1.80638e-05)
(0 -0.00074803 1.92294e-05)
(0 -0.000721255 1.74566e-05)
(0 -0.000834269 1.79962e-05)
(0 -0.00092882 1.55789e-05)
(0 -0.000692867 5.09387e-06)
(0 -0.00067644 -9.47183e-06)
(0 -0.000801908 1.39793e-05)
(0 -0.00114021 9.09437e-05)
(0 -0.00115706 8.60667e-05)
(0 -0.00107211 6.00725e-05)
(0 -0.000989038 4.1946e-05)
(0 -0.00139611 4.92987e-05)
(0 -0.000920694 2.95169e-05)
(0 -0.00132958 3.95211e-05)
(0 -0.00125976 3.59398e-05)
(0 -0.00126695 3.52406e-05)
(0 -0.00108344 3.04933e-05)
(0 -0.00103822 3.05024e-05)
(0 -0.000914786 2.73638e-05)
(0 -0.0011037 3.26336e-05)
(0 -0.00130495 3.88827e-05)
(0 -0.00148605 4.46269e-05)
(0 -0.00149356 4.5826e-05)
(0 -0.0011274 3.62728e-05)
(0 -0.00133335 4.32606e-05)
(0 -0.000950657 3.16392e-05)
(0 -0.00142969 4.77501e-05)
(0 -0.00127663 4.3348e-05)
(0 -0.000962063 3.39049e-05)
(0 -0.00144546 5.08789e-05)
(0 -0.00145091 5.29696e-05)
(0 -0.000971962 3.72296e-05)
(0 -0.00122882 4.77309e-05)
(0 -0.00129874 5.23493e-05)
(0 -0.00146095 6.15768e-05)
(0 -0.00106429 4.67686e-05)
(0 -0.00101885 4.71156e-05)
(0 -0.000977628 4.68537e-05)
(0 -0.00137488 6.74497e-05)
(0 -0.00155173 7.83836e-05)
(0 -0.00128876 6.84132e-05)
(0 -0.00115316 6.50743e-05)
(0 -0.00134126 8.03276e-05)
(0 -0.00140597 9.18035e-05)
(0 -0.00147552 9.81956e-05)
(0 -0.00120629 8.36059e-05)
(0 -5.80814e-07 -0.000456707)
(0 -1.39198e-06 -0.000292264)
(0 -2.14023e-06 -0.000201948)
(0 -1.73831e-06 -0.000134447)
(0 -1.8527e-06 -9.87458e-05)
(0 -2.46196e-06 -8.11782e-05)
(0 -3.61439e-06 -6.8849e-05)
(0 -5.63876e-06 -5.30891e-05)
(0 -7.96216e-06 -3.77859e-05)
(0 -3.71251e-05 -3.27054e-05)
(0 -0.000608673 -9.47227e-06)
(0 -0.000514363 1.68067e-06)
(0 -0.000627586 1.12824e-05)
(0 -0.000599163 1.30754e-05)
(0 -0.000737382 1.68712e-05)
(0 -0.000677756 1.55327e-05)
(0 -0.000662286 1.51349e-05)
(0 -0.000720023 1.63722e-05)
(0 -0.000702352 1.58319e-05)
(0 -0.000654151 1.45338e-05)
(0 -0.000784131 1.70098e-05)
(0 -0.000724513 1.51228e-05)
(0 -0.000707818 1.44733e-05)
(0 -0.000725751 1.65727e-05)
(0 -0.000648151 1.78107e-05)
(0 -0.00068747 2.06056e-05)
(0 -0.000943989 2.91401e-05)
(0 -0.000856931 2.67431e-05)
(0 -0.00110095 3.45643e-05)
(0 -0.000984992 3.10771e-05)
(0 -0.000707166 2.23913e-05)
(0 -0.000818822 2.60001e-05)
(0 -0.000829251 2.63774e-05)
(0 -0.000839412 2.66922e-05)
(0 -0.000775352 2.45949e-05)
(0 -0.00112713 3.5491e-05)
(0 -0.00101251 3.14195e-05)
(0 -0.000876544 2.6532e-05)
(0 -0.000774368 2.27495e-05)
(0 -0.00104299 3.03935e-05)
(0 -0.00126435 3.77729e-05)
(0 -0.000869809 2.67782e-05)
(0 -0.00128726 4.05225e-05)
(0 -0.000811118 2.59e-05)
(0 -0.000892161 2.87406e-05)
(0 -0.00116429 3.77499e-05)
(0 -0.0011086 3.60579e-05)
(0 -0.000957662 3.12027e-05)
(0 -0.000964974 3.14212e-05)
(0 -0.00113432 3.6816e-05)
(0 -0.00120977 3.89589e-05)
(0 -0.00129427 4.12033e-05)
(0 -0.00109667 3.42527e-05)
(0 -0.000997563 3.02257e-05)
(0 -0.000914783 2.63887e-05)
(0 -0.000959466 2.54924e-05)
(0 -0.0013224 3.04023e-05)
(0 -0.00141208 2.42066e-05)
(0 -0.00141341 1.09201e-05)
(0 -0.00106799 -9.68341e-06)
(0 -0.00134141 3.40476e-06)
(0 -0.00147787 0.000107993)
(0 -0.00135246 0.00013134)
(0 -0.00148569 0.000118737)
(0 -0.00116068 7.27763e-05)
(0 -0.00111338 5.63413e-05)
(0 -0.00142082 5.97085e-05)
(0 -0.00134662 5.15954e-05)
(0 -0.00142186 5.16472e-05)
(0 -0.00116557 4.18741e-05)
(0 -0.00106988 3.92834e-05)
(0 -0.00135092 5.01912e-05)
(0 -0.0016041 6.01172e-05)
(0 -0.00107163 4.06134e-05)
(0 -0.00122418 4.56676e-05)
(0 -0.00111864 4.21453e-05)
(0 -0.00116917 4.4224e-05)
(0 -0.00171169 6.72037e-05)
(0 -0.00128456 5.17044e-05)
(0 -0.00116716 4.85163e-05)
(0 -0.00106908 4.47757e-05)
(0 -0.0010675 4.48229e-05)
(0 -0.00141785 6.08705e-05)
(0 -0.00106182 4.62351e-05)
(0 -0.00120953 5.41892e-05)
(0 -0.00133167 6.17821e-05)
(0 -0.00114575 5.44356e-05)
(0 -0.0010456 5.07476e-05)
(0 -0.0011876 5.96891e-05)
(0 -0.00103361 5.47846e-05)
(0 -0.00163705 9.06663e-05)
(0 -0.00143305 8.14336e-05)
(0 -0.00126889 7.08279e-05)
(0 -0.0013227 7.52812e-05)
(0 -0.00138246 8.30132e-05)
(0 -0.00128744 8.12715e-05)
(0 -0.000993662 6.67303e-05)
(0 -0.00140048 9.77808e-05)
(0 -0.00110502 7.97151e-05)
(0 -0.000988046 7.32968e-05)
(0 -0.000697213 1.1146e-06)
(0 -0.000741027 4.75367e-06)
(0 -0.000579239 6.02421e-06)
(0 -0.000638611 8.67174e-06)
(0 -0.000789295 1.27915e-05)
(0 -0.000801226 1.46282e-05)
(0 -0.00077356 1.52691e-05)
(0 -0.00068348 1.4173e-05)
(0 -0.000701553 1.49176e-05)
(0 -0.000834484 1.77407e-05)
(0 -0.00101739 2.13389e-05)
(0 -0.000930395 2.10726e-05)
(0 -0.000817301 2.372e-05)
(0 -0.000832585 2.71187e-05)
(0 -0.000934657 3.1613e-05)
(0 -0.00112624 3.84412e-05)
(0 -0.000913911 3.13676e-05)
(0 -0.00108962 3.75307e-05)
(0 -0.00110356 3.80552e-05)
(0 -0.00118668 4.08163e-05)
(0 -0.000835058 2.84681e-05)
(0 -0.0011422 3.83098e-05)
(0 -0.000934663 3.11437e-05)
(0 -0.000826354 2.82651e-05)
(0 -0.00111239 3.92447e-05)
(0 -0.000961844 3.45943e-05)
(0 -0.00119833 4.35209e-05)
(0 -0.00136955 4.99902e-05)
(0 -0.000941326 3.44657e-05)
(0 -0.000948753 3.48083e-05)
(0 -0.00123735 4.54478e-05)
(0 -0.00141296 5.18522e-05)
(0 -0.000970285 3.55337e-05)
(0 -0.00143322 5.22629e-05)
(0 -0.0012732 4.61017e-05)
(0 -0.00121035 4.33289e-05)
(0 -0.00109619 3.8618e-05)
(0 -0.00137903 4.7593e-05)
(0 -0.00148061 5.00633e-05)
(0 -0.000971797 3.26009e-05)
(0 -0.00107114 3.62289e-05)
(0 -0.00141455 4.8541e-05)
(0 -0.00103453 3.59913e-05)
(0 -0.000994855 3.49489e-05)
(0 -0.00143787 5.08544e-05)
(0 -0.00100526 3.57166e-05)
(0 -0.00136699 4.86553e-05)
(0 -0.00116751 4.15135e-05)
(0 -0.00117294 4.15403e-05)
(0 -0.000981635 3.4534e-05)
(0 -0.00157758 5.49139e-05)
(0 -0.00107974 3.6957e-05)
(0 -0.00119209 3.97813e-05)
(0 -0.00103995 3.33761e-05)
(0 -0.00104303 3.15838e-05)
(0 -0.00141532 3.91767e-05)
(0 -0.00109639 2.6254e-05)
(0 -0.00161319 3.01373e-05)
(0 -0.00135008 1.58377e-05)
(0 -0.00143965 5.94888e-06)
(0 -0.00144955 3.24643e-06)
(0 -0.00115986 4.45275e-05)
(0 -0.00176939 0.000188545)
(0 -0.00177081 0.000172254)
(0 -0.00150168 0.000115971)
(0 -0.00176587 0.000106497)
(0 -0.00122345 5.99997e-05)
(0 -0.00154938 6.79099e-05)
(0 -0.00126509 5.40814e-05)
(0 -0.00132094 5.482e-05)
(0 -0.00183898 7.47333e-05)
(0 -0.00171695 6.96121e-05)
(0 -0.00152074 6.18421e-05)
(0 -0.00181692 7.6321e-05)
(0 -0.00118288 5.02377e-05)
(0 -0.00150472 6.41053e-05)
(0 -0.00112627 4.86504e-05)
(0 -0.00158181 6.73095e-05)
(0 -0.00148862 6.59614e-05)
(0 -0.0014042 6.38978e-05)
(0 -0.00165736 7.62121e-05)
(0 -0.00125642 5.81867e-05)
(0 -0.00119182 5.56489e-05)
(0 -0.00124078 6.05279e-05)
(0 -0.00129522 6.49305e-05)
(0 -0.00107423 5.49672e-05)
(0 -0.00116405 6.15639e-05)
(0 -0.00105997 5.7055e-05)
(0 -0.00109693 6.11607e-05)
(0 -0.00119047 6.8528e-05)
(0 -0.00154486 8.77263e-05)
(0 -0.00163 9.29492e-05)
(0 -0.00100981 5.83539e-05)
(0 -0.0010875 6.42592e-05)
(0 -0.00131097 7.90444e-05)
(0 -0.00105936 6.70031e-05)
(0 -0.00152325 0.000101395)
(0 -0.00124836 8.60256e-05)
(0 -0.00129781 9.7431e-05)
(0 -0.000987831 8.1311e-05)
(0 -0.00100495 2.95418e-07)
(0 -0.000997099 5.77269e-06)
(0 -0.000860189 1.06566e-05)
(0 -0.000938452 1.71465e-05)
(0 -0.000938371 2.17266e-05)
(0 -0.000988789 2.68197e-05)
(0 -0.00110571 3.34025e-05)
(0 -0.00100277 3.24953e-05)
(0 -0.000879549 2.9901e-05)
(0 -0.00113481 3.96015e-05)
(0 -0.000937822 3.31883e-05)
(0 -0.0012261 4.51839e-05)
(0 -0.00140238 5.4252e-05)
(0 -0.00132538 5.26172e-05)
(0 -0.00112468 4.5022e-05)
(0 -0.00134556 5.39379e-05)
(0 -0.00114133 4.57206e-05)
(0 -0.000909821 3.63647e-05)
(0 -0.000999138 3.97637e-05)
(0 -0.00122902 4.85596e-05)
(0 -0.0013095 5.11928e-05)
(0 -0.00140009 5.40586e-05)
(0 -0.00132605 5.08751e-05)
(0 -0.00108 4.17249e-05)
(0 -0.00142574 5.57637e-05)
(0 -0.00120705 4.76631e-05)
(0 -0.00109768 4.36146e-05)
(0 -0.00115831 4.61776e-05)
(0 -0.00136941 5.46655e-05)
(0 -0.00146197 5.83606e-05)
(0 -0.00102164 4.07461e-05)
(0 -0.0014753 5.87022e-05)
(0 -0.00118535 4.69697e-05)
(0 -0.00119037 4.68979e-05)
(0 -0.000995991 3.89301e-05)
(0 -0.00160018 6.18736e-05)
(0 -0.00150629 5.74574e-05)
(0 -0.00134441 5.05291e-05)
(0 -0.00162014 6.0105e-05)
(0 -0.00110923 4.08764e-05)
(0 -0.00136138 5.02694e-05)
(0 -0.00106951 3.97728e-05)
(0 -0.00102863 3.85444e-05)
(0 -0.00130387 4.91775e-05)
(0 -0.00138092 5.2349e-05)
(0 -0.00131243 4.98708e-05)
(0 -0.0013165 5.00509e-05)
(0 -0.00114032 4.32438e-05)
(0 -0.00148004 5.58277e-05)
(0 -0.00168214 6.28895e-05)
(0 -0.00120463 4.44731e-05)
(0 -0.00149184 5.40137e-05)
(0 -0.00115538 4.06927e-05)
(0 -0.00159236 5.39057e-05)
(0 -0.00141857 4.54081e-05)
(0 -0.00121864 3.60129e-05)
(0 -0.00160403 4.21666e-05)
(0 -0.00161003 3.57244e-05)
(0 -0.00117696 2.05245e-05)
(0 -0.00174004 2.25157e-05)
(0 -0.00138759 1.37854e-05)
(0 -0.00165581 2.67997e-05)
(0 -0.00134303 0.000116469)
(0 -0.00164617 0.000185387)
(0 -0.00187891 0.000158313)
(0 -0.00148435 9.56654e-05)
(0 -0.00133046 7.22418e-05)
(0 -0.00120601 5.88167e-05)
(0 -0.00190887 8.9878e-05)
(0 -0.00150035 6.7733e-05)
(0 -0.00123383 5.31294e-05)
(0 -0.00134457 5.81169e-05)
(0 -0.00127888 5.54424e-05)
(0 -0.00140079 6.18092e-05)
(0 -0.00164022 7.33897e-05)
(0 -0.00132239 5.90868e-05)
(0 -0.0018397 8.34661e-05)
(0 -0.00119535 5.30069e-05)
(0 -0.00181938 8.24128e-05)
(0 -0.00169632 7.79358e-05)
(0 -0.00128648 6.05721e-05)
(0 -0.00122115 5.79736e-05)
(0 -0.00116025 5.58762e-05)
(0 -0.0016524 8.10466e-05)
(0 -0.00174808 8.8103e-05)
(0 -0.00144511 7.55523e-05)
(0 -0.00171634 9.1876e-05)
(0 -0.00116031 6.40952e-05)
(0 -0.00157491 8.92206e-05)
(0 -0.00155796 9.05232e-05)
(0 -0.00112417 6.55693e-05)
(0 -0.00102214 5.98909e-05)
(0 -0.0010557 6.38118e-05)
(0 -0.001261 7.67093e-05)
(0 -0.00112659 6.87032e-05)
(0 -0.00129321 8.22393e-05)
(0 -0.00104383 6.9283e-05)
(0 -0.00107627 7.52837e-05)
(0 -0.00130387 9.85113e-05)
(0 -0.00144288 0.000120115)
(0 -0.00140159 -8.44504e-07)
(0 -0.00124538 6.00235e-06)
(0 -0.00101859 1.32667e-05)
(0 -0.00101873 2.01289e-05)
(0 -0.0012474 3.21785e-05)
(0 -0.00118513 3.62688e-05)
(0 -0.000982107 3.36715e-05)
(0 -0.00133486 4.93018e-05)
(0 -0.00103601 4.01131e-05)
(0 -0.00099581 3.96807e-05)
(0 -0.00104656 4.24765e-05)
(0 -0.00144684 6.00439e-05)
(0 -0.00110764 4.70357e-05)
(0 -0.0013744 5.91383e-05)
(0 -0.00106644 4.61095e-05)
(0 -0.00107077 4.62852e-05)
(0 -0.00147825 6.37541e-05)
(0 -0.001583 6.80041e-05)
(0 -0.00125448 5.35808e-05)
(0 -0.00108743 4.61054e-05)
(0 -0.00100048 4.20594e-05)
(0 -0.00114771 4.78659e-05)
(0 -0.00127339 5.28802e-05)
(0 -0.0013492 5.61105e-05)
(0 -0.00121859 5.09558e-05)
(0 -0.00152841 6.42404e-05)
(0 -0.00111507 4.70299e-05)
(0 -0.00123035 5.19856e-05)
(0 -0.00137116 5.79737e-05)
(0 -0.00145607 6.15153e-05)
(0 -0.00146022 6.15655e-05)
(0 -0.00131014 5.50692e-05)
(0 -0.0013137 5.49599e-05)
(0 -0.00139039 5.78137e-05)
(0 -0.00114057 4.70575e-05)
(0 -0.00109383 4.47164e-05)
(0 -0.00120118 4.85894e-05)
(0 -0.00140518 5.62279e-05)
(0 -0.00133491 5.29266e-05)
(0 -0.00141301 5.57023e-05)
(0 -0.00115923 4.56604e-05)
(0 -0.00106535 4.20623e-05)
(0 -0.00150775 5.97484e-05)
(0 -0.00111697 4.44341e-05)
(0 -0.00107276 4.28005e-05)
(0 -0.00161261 6.44179e-05)
(0 -0.00117522 4.69197e-05)
(0 -0.00172724 6.87446e-05)
(0 -0.00144231 5.70823e-05)
(0 -0.00123876 4.85867e-05)
(0 -0.00113332 4.38581e-05)
(0 -0.00108832 4.13239e-05)
(0 -0.00145415 5.37755e-05)
(0 -0.00154311 5.50791e-05)
(0 -0.00131481 4.47277e-05)
(0 -0.00175802 5.60837e-05)
(0 -0.00132295 3.88296e-05)
(0 -0.00132863 3.51463e-05)
(0 -0.00148472 3.50047e-05)
(0 -0.0015843 3.4273e-05)
(0 -0.00151317 3.30077e-05)
(0 -0.00126224 3.38073e-05)
(0 -0.00141319 9.2096e-05)
(0 -0.00141347 0.000124388)
(0 -0.00134953 0.000100708)
(0 -0.00138299 9.12605e-05)
(0 -0.00124326 7.15655e-05)
(0 -0.0012244 6.54225e-05)
(0 -0.00161312 7.81139e-05)
(0 -0.00160142 7.42778e-05)
(0 -0.00119432 5.49453e-05)
(0 -0.00157965 7.24548e-05)
(0 -0.00134715 6.21509e-05)
(0 -0.00187237 8.60853e-05)
(0 -0.00147113 6.80492e-05)
(0 -0.00154287 7.09224e-05)
(0 -0.00172427 7.97023e-05)
(0 -0.00124776 5.76044e-05)
(0 -0.00160228 7.39856e-05)
(0 -0.00117897 5.60341e-05)
(0 -0.00179345 8.72972e-05)
(0 -0.0011159 5.61516e-05)
(0 -0.00110836 5.67242e-05)
(0 -0.00114835 5.77931e-05)
(0 -0.00131023 6.63967e-05)
(0 -0.00144369 7.47361e-05)
(0 -0.00122787 6.50654e-05)
(0 -0.00121697 6.73594e-05)
(0 -0.00115128 6.44884e-05)
(0 -0.0013199 7.54868e-05)
(0 -0.00138037 8.26646e-05)
(0 -0.001295 7.88548e-05)
(0 -0.00135005 8.2682e-05)
(0 -0.00114364 7.06626e-05)
(0 -0.00103157 6.49471e-05)
(0 -0.00097577 6.36777e-05)
(0 -0.00121251 8.36575e-05)
(0 -0.00119281 8.62585e-05)
(0 -0.00147826 0.000110395)
(0 -0.00144255 0.000110948)
(0 -0.0015032 5.54889e-06)
(0 -0.00100624 1.17617e-05)
(0 -0.00129699 2.40814e-05)
(0 -0.000983582 2.39937e-05)
(0 -0.0011307 3.34626e-05)
(0 -0.00159144 5.41494e-05)
(0 -0.00126265 4.73402e-05)
(0 -0.00126841 5.07795e-05)
(0 -0.00142379 5.93431e-05)
(0 -0.00110451 4.71334e-05)
(0 -0.00116146 5.03239e-05)
(0 -0.00163183 7.1643e-05)
(0 -0.00111587 4.95406e-05)
(0 -0.00136754 6.11377e-05)
(0 -0.0010728 4.8079e-05)
(0 -0.00154583 6.92142e-05)
(0 -0.00137715 6.15077e-05)
(0 -0.00108008 4.80599e-05)
(0 -0.0011855 5.24832e-05)
(0 -0.0012475 5.49067e-05)
(0 -0.00138924 6.07782e-05)
(0 -0.00131916 5.7428e-05)
(0 -0.00119629 5.19312e-05)
(0 -0.00167877 7.28781e-05)
(0 -0.00120171 5.22654e-05)
(0 -0.00105362 4.59436e-05)
(0 -0.00110156 4.81166e-05)
(0 -0.00141024 6.16538e-05)
(0 -0.00115591 5.05436e-05)
(0 -0.00159227 6.95578e-05)
(0 -0.00141783 6.18018e-05)
(0 -0.00127823 5.55352e-05)
(0 -0.00142269 6.15412e-05)
(0 -0.00142511 6.13052e-05)
(0 -0.0011172 4.77329e-05)
(0 -0.00128702 5.45651e-05)
(0 -0.00122793 5.16355e-05)
(0 -0.00117427 4.89824e-05)
(0 -0.00123252 5.1052e-05)
(0 -0.0011275 4.64797e-05)
(0 -0.00112962 4.64614e-05)
(0 -0.00123943 5.09795e-05)
(0 -0.00118512 4.88199e-05)
(0 -0.00113542 4.68513e-05)
(0 -0.00108976 4.50148e-05)
(0 -0.00154074 6.36878e-05)
(0 -0.00124904 5.15894e-05)
(0 -0.0016417 6.76407e-05)
(0 -0.00138445 5.67596e-05)
(0 -0.00138646 5.63981e-05)
(0 -0.00155191 6.2415e-05)
(0 -0.00146804 5.81122e-05)
(0 -0.00110295 4.27433e-05)
(0 -0.00139592 5.26127e-05)
(0 -0.00177217 6.44222e-05)
(0 -0.00121157 4.2104e-05)
(0 -0.00127346 4.19246e-05)
(0 -0.0015795 4.89792e-05)
(0 -0.00134915 3.96705e-05)
(0 -0.00123326 3.56325e-05)
(0 -0.00113645 3.53073e-05)
(0 -0.00124287 4.99465e-05)
(0 -0.00123813 7.63097e-05)
(0 -0.00197239 0.000126814)
(0 -0.00135462 8.76386e-05)
(0 -0.00180168 0.000115536)
(0 -0.00125469 7.40064e-05)
(0 -0.00155175 8.53296e-05)
(0 -0.00138826 6.85431e-05)
(0 -0.00131274 6.19183e-05)
(0 -0.00136337 6.48385e-05)
(0 -0.00135374 6.40643e-05)
(0 -0.00156854 7.39258e-05)
(0 -0.00147692 6.78693e-05)
(0 -0.00185767 8.64561e-05)
(0 -0.00120638 5.62105e-05)
(0 -0.00183522 8.44908e-05)
(0 -0.00124528 5.83097e-05)
(0 -0.00123694 5.82182e-05)
(0 -0.0015892 7.78492e-05)
(0 -0.00127919 6.23485e-05)
(0 -0.00156674 7.979e-05)
(0 -0.00175952 9.04258e-05)
(0 -0.00113966 5.98324e-05)
(0 -0.00113102 6.02539e-05)
(0 -0.00107648 5.76247e-05)
(0 -0.00106846 5.94081e-05)
(0 -0.00115589 6.6398e-05)
(0 -0.00109685 6.46291e-05)
(0 -0.00108725 6.49284e-05)
(0 -0.00154571 9.44995e-05)
(0 -0.00136114 8.32352e-05)
(0 -0.00105451 6.52098e-05)
(0 -0.00108885 6.99015e-05)
(0 -0.00107421 7.01405e-05)
(0 -0.00116194 7.94701e-05)
(0 -0.00120217 8.54308e-05)
(0 -0.00118178 8.80633e-05)
(0 -0.0011613 8.77392e-05)
(0 -0.00108363 8.29964e-05)
(0 -0.00146143 1.02842e-05)
(0 -0.00166089 2.74763e-05)
(0 -0.00147121 3.27381e-05)
(0 -0.00147783 4.02733e-05)
(0 -0.00126223 3.98139e-05)
(0 -0.00105683 3.73403e-05)
(0 -0.00159228 6.10024e-05)
(0 -0.00127904 5.16148e-05)
(0 -0.00106957 4.44919e-05)
(0 -0.00128748 5.43576e-05)
(0 -0.00122933 5.22982e-05)
(0 -0.00143731 6.14601e-05)
(0 -0.00161977 6.94991e-05)
(0 -0.00162203 6.97386e-05)
(0 -0.00123721 5.31942e-05)
(0 -0.00162551 6.98045e-05)
(0 -0.00162702 6.97132e-05)
(0 -0.00130275 5.56559e-05)
(0 -0.00173863 7.40436e-05)
(0 -0.00163152 6.9247e-05)
(0 -0.00174205 7.3722e-05)
(0 -0.00137673 5.81438e-05)
(0 -0.0015404 6.49838e-05)
(0 -0.00124831 5.26822e-05)
(0 -0.00174949 7.39065e-05)
(0 -0.00125082 5.29178e-05)
(0 -0.00131456 5.56922e-05)
(0 -0.00164465 6.97485e-05)
(0 -0.00125408 5.31999e-05)
(0 -0.00109818 4.65769e-05)
(0 -0.00109904 4.6547e-05)
(0 -0.00155285 6.56234e-05)
(0 -0.00176135 7.42077e-05)
(0 -0.00155545 6.52627e-05)
(0 -0.00126029 5.26098e-05)
(0 -0.00120413 4.99819e-05)
(0 -0.00165729 6.84016e-05)
(0 -0.00139709 5.73566e-05)
(0 -0.00132871 5.42749e-05)
(0 -0.001478 6.01759e-05)
(0 -0.00133171 5.41013e-05)
(0 -0.00111103 4.51363e-05)
(0 -0.00157014 6.3814e-05)
(0 -0.00178124 7.24734e-05)
(0 -0.00111438 4.5358e-05)
(0 -0.0014089 5.73931e-05)
(0 -0.00116493 4.74451e-05)
(0 -0.00148984 6.05946e-05)
(0 -0.00116702 4.72855e-05)
(0 -0.00149257 6.0112e-05)
(0 -0.00116924 4.67013e-05)
(0 -0.00158364 6.24992e-05)
(0 -0.00141867 5.5141e-05)
(0 -0.00128541 4.89954e-05)
(0 -0.00142317 5.2921e-05)
(0 -0.00117809 4.25617e-05)
(0 -0.0012936 4.52658e-05)
(0 -0.00160296 5.42267e-05)
(0 -0.00182308 5.98966e-05)
(0 -0.00144397 4.66301e-05)
(0 -0.0011443 3.69515e-05)
(0 -0.00160305 5.21576e-05)
(0 -0.00134149 5.15925e-05)
(0 -0.00173377 0.000126796)
(0 -0.00185407 0.000125891)
(0 -0.00194905 0.00011547)
(0 -0.00133474 7.61666e-05)
(0 -0.00166923 8.51875e-05)
(0 -0.00129155 6.22296e-05)
(0 -0.00122444 5.69257e-05)
(0 -0.00132314 6.16885e-05)
(0 -0.00192224 8.71163e-05)
(0 -0.0019077 8.54967e-05)
(0 -0.00135484 6.06071e-05)
(0 -0.00166135 7.44703e-05)
(0 -0.00165165 7.59378e-05)
(0 -0.00121537 5.5334e-05)
(0 -0.0012632 5.89395e-05)
(0 -0.00120116 5.66723e-05)
(0 -0.00182784 8.74658e-05)
(0 -0.00118689 5.70706e-05)
(0 -0.00169175 8.20383e-05)
(0 -0.00112197 5.47565e-05)
(0 -0.00140478 7.17353e-05)
(0 -0.00165398 8.63221e-05)
(0 -0.001143 6.15177e-05)
(0 -0.00144571 7.9995e-05)
(0 -0.00143218 8.0998e-05)
(0 -0.00150084 8.74767e-05)
(0 -0.00157656 9.21109e-05)
(0 -0.00166365 9.99557e-05)
(0 -0.00112613 6.85851e-05)
(0 -0.00106585 6.70991e-05)
(0 -0.00150977 9.61859e-05)
(0 -0.00103829 6.76607e-05)
(0 -0.00123486 8.22068e-05)
(0 -0.00135528 9.245e-05)
(0 -0.001507 0.000109185)
(0 -0.00147797 0.000109364)
(0 -0.00127518 9.88577e-05)
(0 -0.00141414 4.28395e-06)
(0 -0.00135596 1.18537e-05)
(0 -0.00207561 2.56093e-05)
(0 -0.00183029 3.03114e-05)
(0 -0.00129639 2.63529e-05)
(0 -0.00155623 3.65763e-05)
(0 -0.00141593 3.66586e-05)
(0 -0.00135554 3.70532e-05)
(0 -0.00135651 3.82752e-05)
(0 -0.0013005 3.70603e-05)
(0 -0.00148646 4.25842e-05)
(0 -0.00183578 5.26145e-05)
(0 -0.00164145 4.69891e-05)
(0 -0.00207724 5.9471e-05)
(0 -0.00129683 3.71116e-05)
(0 -0.00163605 4.68122e-05)
(0 -0.00194017 5.54904e-05)
(0 -0.00182348 5.21679e-05)
(0 -0.00193473 5.54387e-05)
(0 -0.00140514 4.0309e-05)
(0 -0.0012863 3.69958e-05)
(0 -0.00134051 3.87194e-05)
(0 -0.00171077 4.95924e-05)
(0 -0.00161876 4.71235e-05)
(0 -0.00204788 5.98582e-05)
(0 -0.00146092 4.29085e-05)
(0 -0.00161263 4.76041e-05)
(0 -0.00203999 6.04889e-05)
(0 -0.00169774 5.05367e-05)
(0 -0.00203459 6.0813e-05)
(0 -0.00160418 4.80597e-05)
(0 -0.00179056 5.37645e-05)
(0 -0.00202666 6.09285e-05)
(0 -0.00138017 4.15498e-05)
(0 -0.00189538 5.69527e-05)
(0 -0.00151454 4.54856e-05)
(0 -0.00126079 3.7886e-05)
(0 -0.00131434 3.95312e-05)
(0 -0.00125845 3.78035e-05)
(0 -0.00201133 6.03779e-05)
(0 -0.00143529 4.31626e-05)
(0 -0.00188175 5.68313e-05)
(0 -0.00176916 5.35742e-05)
(0 -0.00200273 6.0965e-05)
(0 -0.0015004 4.58385e-05)
(0 -0.00130328 4.00987e-05)
(0 -0.00199592 6.15199e-05)
(0 -0.00186899 5.78821e-05)
(0 -0.00124473 3.86206e-05)
(0 -0.00165776 5.12684e-05)
(0 -0.00198713 6.13434e-05)
(0 -0.00175159 5.37181e-05)
(0 -0.00129354 3.94262e-05)
(0 -0.0016517 4.98521e-05)
(0 -0.00165089 4.91123e-05)
(0 -0.00174757 5.12349e-05)
(0 -0.00141492 4.0968e-05)
(0 -0.00148647 4.23038e-05)
(0 -0.00148768 4.16843e-05)
(0 -0.00165468 4.5377e-05)
(0 -0.0012962 3.34531e-05)
(0 -0.00129819 2.66549e-05)
(0 -0.00129799 1.96003e-05)
(0 -0.00154682 8.90398e-05)
(0 -0.00211392 0.000131013)
(0 -0.00160532 7.71932e-05)
(0 -0.00204838 9.37501e-05)
(0 -0.00140141 5.87091e-05)
(0 -0.00150818 6.15729e-05)
(0 -0.00130323 5.17892e-05)
(0 -0.00192835 7.5773e-05)
(0 -0.00133161 5.06277e-05)
(0 -0.00138044 5.23623e-05)
(0 -0.00150599 5.73894e-05)
(0 -0.00149371 5.69896e-05)
(0 -0.00197293 7.55704e-05)
(0 -0.00162991 6.35523e-05)
(0 -0.00152957 6.23981e-05)
(0 -0.00137161 5.72519e-05)
(0 -0.00178191 7.40448e-05)
(0 -0.00141349 6.00116e-05)
(0 -0.00127338 5.53993e-05)
(0 -0.00115644 5.12778e-05)
(0 -0.00144356 6.61012e-05)
(0 -0.00118145 5.58176e-05)
(0 -0.00134295 6.62108e-05)
(0 -0.00132724 6.64828e-05)
(0 -0.00124904 6.42166e-05)
(0 -0.00172371 8.92255e-05)
(0 -0.00106548 5.62291e-05)
(0 -0.00167793 9.30326e-05)
(0 -0.00118568 6.98206e-05)
(0 -0.00136169 8.23252e-05)
(0 -0.00105077 6.40647e-05)
(0 -0.00103377 6.6741e-05)
(0 -0.00106167 6.89808e-05)
(0 -0.000997048 6.61938e-05)
(0 -0.00132122 9.41001e-05)
(0 -0.00105424 7.78864e-05)
(0 -0.00114051 8.7792e-05)
(0 -0.00333749 6.47467e-07)
(0 -0.00355639 3.44682e-06)
(0 -0.00284964 3.97101e-06)
(0 -0.00316279 6.69116e-06)
(0 -0.00316155 8.74735e-06)
(0 -0.00284363 9.40429e-06)
(0 -0.00315713 1.1722e-05)
(0 -0.00354864 1.40007e-05)
(0 -0.00298315 1.22285e-05)
(0 -0.00353582 1.46345e-05)
(0 -0.00313442 1.30822e-05)
(0 -0.0031252 1.30611e-05)
(0 -0.00350445 1.46254e-05)
(0 -0.00310415 1.29765e-05)
(0 -0.00347972 1.45704e-05)
(0 -0.00264156 1.10878e-05)
(0 -0.00251227 1.0569e-05)
(0 -0.00250297 1.05716e-05)
(0 -0.00288738 1.22713e-05)
(0 -0.00227749 9.73186e-06)
(0 -0.00226903 9.77139e-06)
(0 -0.00339078 1.47578e-05)
(0 -0.00284494 1.24906e-05)
(0 -0.00299179 1.32582e-05)
(0 -0.00223549 9.98993e-06)
(0 -0.00232374 1.04873e-05)
(0 -0.00253516 1.156e-05)
(0 -0.00241044 1.10953e-05)
(0 -0.00229646 1.06681e-05)
(0 -0.0030943 1.45213e-05)
(0 -0.00249481 1.17991e-05)
(0 -0.00274602 1.3093e-05)
(0 -0.00247427 1.18789e-05)
(0 -0.00344937 1.67048e-05)
(0 -0.00214714 1.04261e-05)
(0 -0.0022311 1.08991e-05)
(0 -0.00255494 1.25886e-05)
(0 -0.00318014 1.58116e-05)
(0 -0.00253367 1.26585e-05)
(0 -0.00219405 1.10019e-05)
(0 -0.00218479 1.10456e-05)
(0 -0.0026333 1.3457e-05)
(0 -0.00216621 1.1157e-05)
(0 -0.00261061 1.36092e-05)
(0 -0.00205785 1.08306e-05)
(0 -0.00327708 1.75347e-05)
(0 -0.00212796 1.14569e-05)
(0 -0.00286536 1.56357e-05)
(0 -0.00323244 1.78267e-05)
(0 -0.00209881 1.15967e-05)
(0 -0.00266924 1.48443e-05)
(0 -0.00199325 1.10864e-05)
(0 -0.00238114 1.32912e-05)
(0 -0.00249578 1.39269e-05)
(0 -0.00205354 1.13936e-05)
(0 -0.00204552 1.13097e-05)
(0 -0.00312427 1.73149e-05)
(0 -0.00233548 1.28703e-05)
(0 -0.00245037 1.34527e-05)
(0 -0.00290121 1.57292e-05)
(0 -0.00193003 9.86758e-06)
(0 -0.00308689 1.28493e-05)
(0 -0.00232507 5.52193e-06)
(0 -0.00319626 2.93157e-05)
(0 -0.00260057 3.22332e-05)
(0 -0.00275913 2.62988e-05)
(0 -0.00336438 2.95666e-05)
(0 -0.00288783 2.49635e-05)
(0 -0.00299167 2.54402e-05)
(0 -0.002605 2.19047e-05)
(0 -0.00306512 2.52994e-05)
(0 -0.00266147 2.22597e-05)
(0 -0.00296639 2.53379e-05)
(0 -0.00243519 2.07814e-05)
(0 -0.00253819 2.19744e-05)
(0 -0.00212637 1.81654e-05)
(0 -0.00174574 1.52617e-05)
(0 -0.00228731 2.15902e-05)
(0 -0.00225076 2.2217e-05)
(0 -0.00199298 1.96373e-05)
(0 -0.00170431 1.74152e-05)
(0 -0.00226182 2.48041e-05)
(0 -0.00157446 1.77039e-05)
(0 -0.00176172 2.06548e-05)
(0 -0.0019069 2.39864e-05)
(0 -0.00186637 2.46176e-05)
(0 -0.0016516 2.25404e-05)
(0 -0.0018809 2.70961e-05)
(0 -0.00143873 2.07022e-05)
(0 -0.00140185 2.17561e-05)
(0 -0.00174067 2.89121e-05)
(0 -0.00203054 3.75409e-05)
(0 -0.00147958 2.83798e-05)
(0 -0.00130097 2.67186e-05)
(0 -0.00162012 3.70519e-05)
(0 -0.00120588 2.88287e-05)
(0 -0.00110409 2.85591e-05)
(0 -0.00160945 4.74444e-05)
(0 -0.00143649 4.8196e-05)
(0 -0.00120521 4.50741e-05)
)
;

boundaryField
{
    inlet
    {
        type            fixedValue;
        value           uniform (0 -0.0005 0);
    }
    outlet
    {
        type            fluxCorrectedVelocity;
        phi             phi.gas;
        rho             rho.gas;
        value           nonuniform List<vector> 10((0 1.50515e-55 -5.13932e-23) (0 -1.40928e-19 -2.93304e-06) (0 -1.64951e-07 -0.000456707) (0 -0.000545608 1.1146e-06) (0 -0.00101187 2.95418e-07) (0 -0.00138991 -8.44504e-07) (0 -0.00145157 5.54889e-06) (0 -0.00144748 1.02842e-05) (0 -0.0014092 4.28395e-06) (0 -0.00333089 6.47467e-07));
    }
    walls
    {
        type            fixedValue;
        value           uniform (0 0 0);
    }
}


// ************************************************************************* //
