/*--------------------------------*- C++ -*----------------------------------*\
| =========                 |                                                 |
| \\      /  F ield         | foam-extend: Open Source CFD                    |
|  \\    /   O peration     | Version:     5.0                                |
|   \\  /    A nd           | Web:         http://www.foam-extend.org         |
|    \\/     M anipulation  |                                                 |
\*---------------------------------------------------------------------------*/
FoamFile
{
    version     2.0;
    format      ascii;
    class       volVectorField;
    location    "8000";
    object      U.oil;
}
// * * * * * * * * * * * * * * * * * * * * * * * * * * * * * * * * * * * * * //

dimensions      [0 1 -1 0 0 0 0];

internalField   nonuniform List<vector> 
1000
(
(0 -0.000337781 -5.5924e-06)
(0 -0.000329176 -3.01274e-06)
(0 -0.000419779 -2.31471e-06)
(0 -0.000372248 -1.27251e-06)
(0 -0.000413742 -8.78562e-07)
(0 -0.000438096 -5.70958e-07)
(0 -0.000466338 -3.55087e-07)
(0 -0.000349359 -1.27965e-07)
(0 -0.000465649 6.58301e-09)
(0 -0.00043679 2.38192e-07)
(0 -0.000291698 3.45756e-07)
(0 -0.00031882 2.27264e-07)
(0 -0.000292481 2.10341e-08)
(0 -0.00029249 -1.20445e-08)
(0 -0.000305219 2.46359e-08)
(0 -0.000468126 8.54117e-08)
(0 -0.000413204 7.62571e-08)
(0 -0.000292791 5.05514e-08)
(0 -0.00035145 4.02842e-08)
(0 -0.000305675 3.15261e-08)
(0 -0.000293054 8.53315e-08)
(0 -0.000370885 6.03569e-07)
(0 -0.000393305 1.17848e-06)
(0 -0.000338496 3.67687e-07)
(0 -0.00039537 3.08225e-08)
(0 -0.000418702 4.37372e-08)
(0 -0.000374756 9.52218e-08)
(0 -0.000323831 1.05461e-07)
(0 -0.000324032 1.03069e-07)
(0 -0.00047561 1.6638e-07)
(0 -0.00047594 1.6935e-07)
(0 -0.000324672 9.77617e-08)
(0 -0.000376157 9.52755e-08)
(0 -0.000376316 6.77251e-08)
(0 -0.000420726 4.33085e-08)
(0 -0.000325036 -4.88839e-08)
(0 -0.00029769 -1.95733e-07)
(0 -0.000309854 -5.76773e-07)
(0 -0.000442636 -1.89119e-06)
(0 -0.00035044 -1.81079e-06)
(0 -0.000289517 -8.95309e-07)
(0 -0.000345608 -6.3979e-07)
(0 -0.000287082 -3.7856e-07)
(0 -0.000404747 -4.52818e-07)
(0 -0.000298917 -3.12639e-07)
(0 -0.000312305 -3.20471e-07)
(0 -0.000457747 -4.77556e-07)
(0 -0.000343087 -3.71515e-07)
(0 -0.00031168 -3.56394e-07)
(0 -0.000403007 -4.93437e-07)
(0 -0.000325918 -4.38727e-07)
(0 -0.000341785 -5.15244e-07)
(0 -0.000310214 -5.42193e-07)
(0 -0.000340502 -7.03925e-07)
(0 -0.000399388 -1.03891e-06)
(0 -0.000321902 -1.12546e-06)
(0 -0.000447568 -2.28524e-06)
(0 -0.000331809 -2.73933e-06)
(0 -0.000381997 -5.81152e-06)
(0 -0.000386013 -9.90589e-06)
(0 -0.000363737 2.95049e-06)
(0 -0.00029919 7.87057e-06)
(0 -0.000192016 5.02417e-06)
(0 -0.000219569 2.83461e-06)
(0 -0.00021807 1.34864e-06)
(0 -0.000160218 7.72218e-07)
(0 -0.000195159 7.64947e-08)
(0 -0.000159699 7.98415e-08)
(0 -0.000178957 -1.69811e-07)
(0 -0.000172223 -2.83558e-07)
(0 -0.000175762 -3.87312e-07)
(0 -0.00013639 -2.44907e-07)
(0 -0.000172643 -4.08619e-07)
(0 -0.000139876 -2.10727e-07)
(0 -0.000134454 -1.46126e-07)
(0 -0.000129208 -1.33033e-07)
(0 -0.00013115 -1.80485e-07)
(0 -0.000125971 -2.3861e-07)
(0 -0.000136415 -2.59479e-07)
(0 -9.90814e-05 -1.95441e-07)
(0 -0.000104391 -1.50368e-07)
(0 -9.93931e-05 -1.9648e-07)
(0 -9.43267e-05 -2.50533e-07)
(0 -0.000106758 -2.18514e-07)
(0 -9.5525e-05 -1.74682e-07)
(0 -7.25226e-05 -1.58125e-07)
(0 -8.98853e-05 -1.64356e-07)
(0 -5.79197e-05 -1.62887e-08)
(0 -5.84743e-05 -4.04762e-08)
(0 -5.08683e-05 -1.20865e-07)
(0 -6.89947e-05 -2.55259e-07)
(0 -4.95166e-05 -8.62957e-08)
(0 -3.78285e-05 4.77416e-08)
(0 -4.09167e-05 4.3617e-09)
(0 -3.80245e-05 -4.3039e-08)
(0 -2.71163e-05 1.04458e-08)
(0 -2.04127e-05 6.63147e-08)
(0 -1.38283e-05 4.90235e-08)
(0 -1.34155e-05 -1.12848e-07)
(0 -5.35457e-06 -9.56592e-08)
(0 -0.000451757 -1.74698e-05)
(0 -0.000325373 -7.68268e-06)
(0 -0.000394119 -5.90512e-06)
(0 -0.000370963 -3.50539e-06)
(0 -0.00029244 -1.72354e-06)
(0 -0.000291664 -1.05895e-06)
(0 -0.000436781 -9.33553e-07)
(0 -0.000290907 -3.15374e-07)
(0 -0.000348918 -3.79063e-08)
(0 -0.000367392 5.60968e-07)
(0 -0.000411738 1.92172e-06)
(0 -0.000369564 8.4764e-07)
(0 -0.000334496 -1.10673e-07)
(0 -0.000412875 -1.56414e-07)
(0 -0.000412797 1.2156e-07)
(0 -0.000305184 1.69465e-07)
(0 -0.000468175 2.8829e-07)
(0 -0.000351246 1.89784e-07)
(0 -0.000369831 1.2227e-07)
(0 -0.000319335 1.16759e-09)
(0 -0.000389856 -1.53691e-07)
(0 -0.000332293 -2.81046e-07)
(0 -0.000404554 -4.09418e-07)
(0 -0.000356318 -2.90999e-07)
(0 -0.000352144 -2.49659e-07)
(0 -0.000332444 -1.79199e-07)
(0 -0.000315802 -1.31548e-07)
(0 -0.000367934 -1.46974e-07)
(0 -0.000314989 -1.43505e-07)
(0 -0.000440477 -2.10086e-07)
(0 -0.00028688 -1.51811e-07)
(0 -0.000411832 -2.93128e-07)
(0 -0.000365554 -3.27592e-07)
(0 -0.000364993 -4.22189e-07)
(0 -0.000345186 -5.11422e-07)
(0 -0.000272737 -5.91641e-07)
(0 -0.000343841 -1.16438e-06)
(0 -0.000271832 -1.56404e-06)
(0 -0.000296826 -2.89218e-06)
(0 -0.000344836 -3.81284e-06)
(0 -0.000273595 -2.1256e-06)
(0 -0.000328273 -1.81412e-06)
(0 -0.000298155 -1.33326e-06)
(0 -0.000297872 -1.18465e-06)
(0 -0.000385118 -1.45797e-06)
(0 -0.000327055 -1.22707e-06)
(0 -0.000408434 -1.54631e-06)
(0 -0.000435235 -1.69006e-06)
(0 -0.000434787 -1.76728e-06)
(0 -0.00034288 -1.48731e-06)
(0 -0.000325344 -1.53401e-06)
(0 -0.000295367 -1.53835e-06)
(0 -0.000432472 -2.54603e-06)
(0 -0.000269771 -1.85503e-06)
(0 -0.000293583 -2.46424e-06)
(0 -0.000279923 -3.0378e-06)
(0 -0.0003205 -4.81676e-06)
(0 -0.00035401 -7.99605e-06)
(0 -0.000263776 -9.87723e-06)
(0 -0.000260875 -1.57419e-05)
(0 -0.000288663 -4.57747e-06)
(0 -0.000339189 2.27035e-05)
(0 -0.000285478 1.81371e-05)
(0 -0.000230759 8.21397e-06)
(0 -0.000191542 3.18612e-06)
(0 -0.000253758 2.13785e-06)
(0 -0.000155805 4.42064e-07)
(0 -0.000214207 -9.88777e-08)
(0 -0.000193664 -5.78644e-07)
(0 -0.000186235 -8.66876e-07)
(0 -0.00015174 -7.44062e-07)
(0 -0.00013841 -5.06983e-07)
(0 -0.000115576 -4.91266e-07)
(0 -0.000132865 -6.919e-07)
(0 -0.000150378 -7.87256e-07)
(0 -0.000164444 -9.1389e-07)
(0 -0.000158745 -8.68149e-07)
(0 -0.000114091 -5.24417e-07)
(0 -0.000128944 -7.11069e-07)
(0 -8.66172e-05 -4.65151e-07)
(0 -0.000124263 -7.67762e-07)
(0 -0.000105419 -6.76376e-07)
(0 -7.4408e-05 -4.49919e-07)
(0 -0.000106117 -7.86933e-07)
(0 -0.000101034 -6.34649e-07)
(0 -6.27884e-05 -3.31182e-07)
(0 -7.4134e-05 -4.81191e-07)
(0 -7.30659e-05 -3.71061e-07)
(0 -7.69057e-05 -3.46464e-07)
(0 -5.12266e-05 -2.35786e-07)
(0 -4.42673e-05 -1.78334e-07)
(0 -3.75657e-05 -1.4994e-07)
(0 -4.73271e-05 -2.43697e-07)
(0 -4.79595e-05 -3.53505e-07)
(0 -3.46359e-05 -2.72445e-07)
(0 -2.566e-05 -2.06209e-07)
(0 -2.39975e-05 -2.61794e-07)
(0 -1.92526e-05 -1.87589e-07)
(0 -1.41048e-05 -4.70132e-07)
(0 -5.33923e-06 -2.90483e-07)
(0 -0.000337835 -1.52743e-05)
(0 -0.000336556 -1.06768e-05)
(0 -0.000468826 -1.00166e-05)
(0 -0.000412138 -5.53624e-06)
(0 -0.000291265 -2.44155e-06)
(0 -0.000332411 -1.72254e-06)
(0 -0.000332083 -1.04379e-06)
(0 -0.000348396 -6.54731e-07)
(0 -0.000347962 -3.90771e-07)
(0 -0.000407982 -2.50203e-07)
(0 -0.000310927 -6.48943e-08)
(0 -0.00027727 2.89353e-09)
(0 -0.00038452 -9.14234e-08)
(0 -0.000339808 -8.96682e-08)
(0 -0.000401734 -4.27245e-08)
(0 -0.000356234 -4.45968e-08)
(0 -0.000336721 -8.44042e-08)
(0 -0.00035462 -1.89775e-07)
(0 -0.000335144 -3.31099e-07)
(0 -0.000302429 -5.38226e-07)
(0 -0.000351986 -1.11407e-06)
(0 -0.00031647 -1.99548e-06)
(0 -0.000301911 -2.65172e-06)
(0 -0.000302275 -1.6454e-06)
(0 -0.000264139 -8.78143e-07)
(0 -0.000275123 -7.99918e-07)
(0 -0.000371741 -1.09025e-06)
(0 -0.000332272 -1.00952e-06)
(0 -0.000420488 -1.32078e-06)
(0 -0.000370685 -1.21754e-06)
(0 -0.000262329 -9.07204e-07)
(0 -0.000299528 -1.11653e-06)
(0 -0.000299255 -1.20451e-06)
(0 -0.00029898 -1.32644e-06)
(0 -0.000272735 -1.35403e-06)
(0 -0.000391707 -2.25268e-06)
(0 -0.000347952 -2.40666e-06)
(0 -0.000298232 -2.55088e-06)
(0 -0.000261243 -2.71349e-06)
(0 -0.000348998 -3.83355e-06)
(0 -0.000419406 -4.14619e-06)
(0 -0.000286115 -2.47473e-06)
(0 -0.000419558 -3.27648e-06)
(0 -0.000262138 -1.92458e-06)
(0 -0.000285864 -2.03597e-06)
(0 -0.000369751 -2.60283e-06)
(0 -0.000349021 -2.47458e-06)
(0 -0.000299015 -2.15983e-06)
(0 -0.000298875 -2.2329e-06)
(0 -0.000348495 -2.73205e-06)
(0 -0.000368751 -3.0937e-06)
(0 -0.000391493 -3.55874e-06)
(0 -0.000329399 -3.32204e-06)
(0 -0.000297753 -3.43625e-06)
(0 -0.000271589 -3.70527e-06)
(0 -0.000283622 -4.77097e-06)
(0 -0.000389539 -8.44831e-06)
(0 -0.000415409 -1.22588e-05)
(0 -0.000416854 -1.75211e-05)
(0 -0.000317116 -1.90103e-05)
(0 -0.000398363 -1.8368e-05)
(0 -0.000403764 1.79707e-05)
(0 -0.000309439 2.27884e-05)
(0 -0.000292036 1.56517e-05)
(0 -0.000199847 6.57837e-06)
(0 -0.000173648 3.05405e-06)
(0 -0.000208557 1.4934e-06)
(0 -0.000187596 4.00994e-07)
(0 -0.000189398 -1.32896e-07)
(0 -0.000147784 -2.31467e-07)
(0 -0.000128976 -1.43639e-07)
(0 -0.000156499 -2.43439e-07)
(0 -0.000179737 -4.01341e-07)
(0 -0.000114674 -3.5958e-07)
(0 -0.000125717 -6.39335e-07)
(0 -0.000109889 -5.82093e-07)
(0 -0.000109939 -6.46544e-07)
(0 -0.000155874 -7.01616e-07)
(0 -0.000112319 -5.19418e-07)
(0 -9.74887e-05 -4.02306e-07)
(0 -8.48677e-05 -4.64863e-07)
(0 -8.0289e-05 -5.31699e-07)
(0 -0.000102019 -6.72917e-07)
(0 -7.20898e-05 -5.55407e-07)
(0 -7.76689e-05 -5.72565e-07)
(0 -8.09913e-05 -5.39774e-07)
(0 -6.53387e-05 -4.77505e-07)
(0 -5.52697e-05 -4.27648e-07)
(0 -5.82783e-05 -4.04596e-07)
(0 -4.62378e-05 -2.0967e-07)
(0 -6.83212e-05 -2.73198e-07)
(0 -5.52005e-05 -3.38299e-07)
(0 -4.42991e-05 -5.64327e-07)
(0 -4.15237e-05 -5.38029e-07)
(0 -3.87042e-05 -3.9732e-07)
(0 -3.13433e-05 -3.27398e-07)
(0 -1.94772e-05 -1.76272e-07)
(0 -2.2041e-05 -3.05353e-07)
(0 -1.2226e-05 -2.02212e-07)
(0 -5.02141e-06 -1.55747e-07)
(0 -0.000357586 -1.6922e-05)
(0 -0.000351832 -1.31564e-05)
(0 -0.000261435 -7.28286e-06)
(0 -0.000284381 -5.66087e-06)
(0 -0.000347286 -4.8417e-06)
(0 -0.000346842 -3.36509e-06)
(0 -0.000327995 -2.24652e-06)
(0 -0.000282618 -1.43495e-06)
(0 -0.000281817 -1.22999e-06)
(0 -0.00032547 -1.70075e-06)
(0 -0.000386599 -3.21767e-06)
(0 -0.00034383 -1.63049e-06)
(0 -0.000293863 -3.95059e-07)
(0 -0.000292729 -3.53778e-07)
(0 -0.000322745 -6.33377e-07)
(0 -0.000382686 -9.28671e-07)
(0 -0.000305745 -8.7139e-07)
(0 -0.000359264 -1.19356e-06)
(0 -0.000358866 -1.39786e-06)
(0 -0.000380935 -1.78874e-06)
(0 -0.000264838 -1.55325e-06)
(0 -0.000358397 -2.64283e-06)
(0 -0.000290489 -2.40382e-06)
(0 -0.000254471 -1.8627e-06)
(0 -0.000339345 -2.11451e-06)
(0 -0.000290751 -1.67491e-06)
(0 -0.000358997 -2.02868e-06)
(0 -0.000406685 -2.31312e-06)
(0 -0.000277186 -1.60699e-06)
(0 -0.000277099 -1.64914e-06)
(0 -0.000358476 -2.20272e-06)
(0 -0.000406123 -2.60876e-06)
(0 -0.00027682 -1.8696e-06)
(0 -0.000405879 -2.91322e-06)
(0 -0.000358032 -2.76348e-06)
(0 -0.000338088 -2.85246e-06)
(0 -0.000304302 -2.84645e-06)
(0 -0.000380542 -3.96799e-06)
(0 -0.00040628 -4.63927e-06)
(0 -0.000265325 -3.12404e-06)
(0 -0.000290955 -3.32214e-06)
(0 -0.000382156 -4.14243e-06)
(0 -0.000278042 -2.86571e-06)
(0 -0.000266018 -2.66115e-06)
(0 -0.000382418 -3.74971e-06)
(0 -0.000266039 -2.58477e-06)
(0 -0.000359926 -3.51461e-06)
(0 -0.00030593 -3.0388e-06)
(0 -0.00030593 -3.12492e-06)
(0 -0.000254956 -2.70466e-06)
(0 -0.000407892 -4.55496e-06)
(0 -0.000278091 -3.33023e-06)
(0 -0.000305888 -4.00881e-06)
(0 -0.000265993 -3.91342e-06)
(0 -0.000266031 -4.50262e-06)
(0 -0.000360034 -7.21027e-06)
(0 -0.000278491 -6.79969e-06)
(0 -0.00040943 -1.25112e-05)
(0 -0.000343049 -1.32319e-05)
(0 -0.000366926 -1.72979e-05)
(0 -0.000370678 -1.79562e-05)
(0 -0.00028642 -8.67205e-07)
(0 -0.000378025 3.05691e-05)
(0 -0.000320876 2.32409e-05)
(0 -0.000237339 1.19547e-05)
(0 -0.000257377 6.84925e-06)
(0 -0.000163901 2.02085e-06)
(0 -0.000196654 1.20442e-06)
(0 -0.000152036 7.0499e-07)
(0 -0.000151329 3.52229e-07)
(0 -0.000203726 7.23615e-08)
(0 -0.000184067 -1.44795e-07)
(0 -0.000157384 -2.12252e-07)
(0 -0.000182536 -3.29922e-08)
(0 -0.000113891 -8.86574e-08)
(0 -0.000139956 -2.27015e-07)
(0 -0.000100168 -1.87815e-07)
(0 -0.00013601 -5.20709e-07)
(0 -0.000123505 -2.48322e-07)
(0 -0.000112081 -2.01612e-07)
(0 -0.000127879 -3.32803e-07)
(0 -9.27815e-05 -3.19001e-07)
(0 -8.39178e-05 -3.52267e-07)
(0 -8.32911e-05 -1.97746e-07)
(0 -8.29118e-05 -2.18585e-07)
(0 -6.4746e-05 -2.02216e-07)
(0 -6.60342e-05 -1.67006e-07)
(0 -5.59687e-05 -2.06732e-07)
(0 -5.36853e-05 -1.87222e-07)
(0 -5.38973e-05 -2.23864e-07)
(0 -6.54338e-05 -5.84675e-07)
(0 -6.46011e-05 -6.06469e-07)
(0 -3.57181e-05 -3.22119e-07)
(0 -3.38622e-05 -2.97963e-07)
(0 -3.59662e-05 -3.34529e-07)
(0 -2.42345e-05 -1.47398e-07)
(0 -2.92625e-05 -1.1023e-07)
(0 -1.88284e-05 -7.45665e-08)
(0 -1.40025e-05 1.76645e-07)
(0 -4.9686e-06 1.75646e-07)
(0 -0.000297791 -1.50428e-05)
(0 -0.000297173 -1.25566e-05)
(0 -0.000258033 -8.77123e-06)
(0 -0.000282678 -7.66723e-06)
(0 -0.000283008 -5.91121e-06)
(0 -0.000297478 -4.69878e-06)
(0 -0.000330721 -3.96819e-06)
(0 -0.000297735 -2.8305e-06)
(0 -0.000258947 -2.07379e-06)
(0 -0.000330963 -2.52467e-06)
(0 -0.000271052 -2.12312e-06)
(0 -0.000351088 -2.23154e-06)
(0 -0.000397753 -1.81136e-06)
(0 -0.000372478 -1.50908e-06)
(0 -0.000313358 -1.34287e-06)
(0 -0.00037187 -1.73482e-06)
(0 -0.000313004 -1.58245e-06)
(0 -0.000247705 -1.3653e-06)
(0 -0.000270164 -1.63014e-06)
(0 -0.000330186 -2.20507e-06)
(0 -0.000349692 -2.60551e-06)
(0 -0.00037179 -3.07359e-06)
(0 -0.000350282 -3.05261e-06)
(0 -0.000283858 -2.40602e-06)
(0 -0.000372801 -2.98101e-06)
(0 -0.00031404 -2.41421e-06)
(0 -0.000284195 -2.14357e-06)
(0 -0.000298461 -2.24918e-06)
(0 -0.000351186 -2.67663e-06)
(0 -0.000373188 -2.89358e-06)
(0 -0.000259659 -2.05781e-06)
(0 -0.000373322 -3.04688e-06)
(0 -0.000298713 -2.53326e-06)
(0 -0.000298782 -2.64488e-06)
(0 -0.000249062 -2.32251e-06)
(0 -0.000398644 -3.94876e-06)
(0 -0.000373918 -3.95805e-06)
(0 -0.000332624 -3.75353e-06)
(0 -0.000399546 -4.7461e-06)
(0 -0.000272749 -3.32278e-06)
(0 -0.000333749 -4.03659e-06)
(0 -0.000261453 -3.08873e-06)
(0 -0.000250762 -2.89375e-06)
(0 -0.000316953 -3.58535e-06)
(0 -0.000334732 -3.7315e-06)
(0 -0.00031726 -3.52699e-06)
(0 -0.000317397 -3.53923e-06)
(0 -0.000274241 -3.10559e-06)
(0 -0.000355058 -4.11958e-06)
(0 -0.000402571 -4.83909e-06)
(0 -0.000287691 -3.61694e-06)
(0 -0.000355568 -4.76606e-06)
(0 -0.000274938 -3.98978e-06)
(0 -0.000378331 -6.06135e-06)
(0 -0.000336641 -6.06681e-06)
(0 -0.000289 -5.97019e-06)
(0 -0.00038019 -9.17291e-06)
(0 -0.000381578 -1.08414e-05)
(0 -0.000279178 -9.29528e-06)
(0 -0.000413078 -1.55946e-05)
(0 -0.000329884 -1.3342e-05)
(0 -0.000392526 -1.29465e-05)
(0 -0.000293052 1.31405e-05)
(0 -0.000301796 2.32796e-05)
(0 -0.000301506 1.42224e-05)
(0 -0.000213597 5.61658e-06)
(0 -0.000175196 2.77053e-06)
(0 -0.000147722 1.27806e-06)
(0 -0.000225136 1.42224e-06)
(0 -0.000169829 4.98418e-07)
(0 -0.000133368 -4.94538e-08)
(0 -0.00013961 -5.2095e-08)
(0 -0.000127445 -1.0153e-07)
(0 -0.00013448 -7.05313e-08)
(0 -0.000152405 -7.85659e-08)
(0 -0.000118134 -2.0171e-07)
(0 -0.000159502 -2.81796e-07)
(0 -9.91683e-05 -4.29436e-07)
(0 -0.00014626 -5.59974e-07)
(0 -0.000131865 -5.36169e-07)
(0 -9.56995e-05 -3.31288e-07)
(0 -8.64515e-05 -3.47942e-07)
(0 -7.77519e-05 -3.17704e-07)
(0 -0.000106112 -4.23061e-07)
(0 -0.000107758 -3.55831e-07)
(0 -8.47338e-05 -1.88749e-07)
(0 -9.62266e-05 -2.72874e-07)
(0 -6.08654e-05 -1.45836e-07)
(0 -7.82637e-05 -2.29952e-07)
(0 -7.32955e-05 -2.26598e-07)
(0 -4.88292e-05 -2.22472e-07)
(0 -4.01475e-05 -2.12587e-07)
(0 -3.6958e-05 -1.40964e-07)
(0 -3.94022e-05 -2.87459e-07)
(0 -3.04953e-05 -3.09656e-07)
(0 -3.00056e-05 -2.2648e-07)
(0 -1.93478e-05 -1.08296e-07)
(0 -1.45376e-05 1.73765e-08)
(0 -1.14172e-05 1.89132e-07)
(0 -5.64263e-06 3.49272e-07)
(0 -0.000363392 -2.06672e-05)
(0 -0.000320365 -1.6189e-05)
(0 -0.0002612 -1.0662e-05)
(0 -0.000261373 -8.54564e-06)
(0 -0.000320174 -8.12477e-06)
(0 -0.00030413 -5.94719e-06)
(0 -0.000251923 -3.82122e-06)
(0 -0.000341562 -4.13766e-06)
(0 -0.000264431 -2.68072e-06)
(0 -0.000253393 -2.27288e-06)
(0 -0.000265358 -2.19971e-06)
(0 -0.000365318 -2.68749e-06)
(0 -0.000278513 -1.78372e-06)
(0 -0.000344094 -2.05429e-06)
(0 -0.000265896 -1.58285e-06)
(0 -0.000265919 -1.6391e-06)
(0 -0.000365685 -2.35789e-06)
(0 -0.000390142 -2.65145e-06)
(0 -0.000308109 -2.22312e-06)
(0 -0.000266227 -2.04739e-06)
(0 -0.000244214 -2.00209e-06)
(0 -0.000279361 -2.41722e-06)
(0 -0.000309103 -2.75358e-06)
(0 -0.000326628 -2.90094e-06)
(0 -0.000294243 -2.55117e-06)
(0 -0.000368084 -3.12621e-06)
(0 -0.000267881 -2.25016e-06)
(0 -0.000294855 -2.47144e-06)
(0 -0.000327806 -2.75906e-06)
(0 -0.000347281 -2.95865e-06)
(0 -0.000347472 -3.01511e-06)
(0 -0.000311071 -2.75923e-06)
(0 -0.00031125 -2.84514e-06)
(0 -0.000328737 -3.11112e-06)
(0 -0.000269143 -2.65218e-06)
(0 -0.00025763 -2.65096e-06)
(0 -0.000282401 -3.04405e-06)
(0 -0.000329786 -3.71421e-06)
(0 -0.000312773 -3.6456e-06)
(0 -0.000330544 -3.93119e-06)
(0 -0.000270769 -3.22564e-06)
(0 -0.000248484 -2.93437e-06)
(0 -0.000351151 -4.09131e-06)
(0 -0.000259782 -2.98541e-06)
(0 -0.000249168 -2.83596e-06)
(0 -0.00037404 -4.24362e-06)
(0 -0.000272235 -3.09902e-06)
(0 -0.000399579 -4.60516e-06)
(0 -0.000333236 -3.91987e-06)
(0 -0.000285857 -3.46995e-06)
(0 -0.000261219 -3.31371e-06)
(0 -0.000250567 -3.36493e-06)
(0 -0.000334442 -4.82806e-06)
(0 -0.000354561 -5.57642e-06)
(0 -0.000301859 -5.25466e-06)
(0 -0.000403323 -7.86893e-06)
(0 -0.000303363 -6.6786e-06)
(0 -0.000304581 -7.56219e-06)
(0 -0.000340325 -9.37217e-06)
(0 -0.000363157 -1.0594e-05)
(0 -0.000346909 -9.8773e-06)
(0 -0.000289471 -6.52106e-06)
(0 -0.00031922 6.1281e-06)
(0 -0.000285747 1.3723e-05)
(0 -0.000227486 8.32025e-06)
(0 -0.000201915 6.1459e-06)
(0 -0.000163366 3.11338e-06)
(0 -0.000149197 1.98627e-06)
(0 -0.000187996 1.10635e-06)
(0 -0.000179484 6.31339e-07)
(0 -0.000127634 3.27655e-07)
(0 -0.000163144 2.05737e-07)
(0 -0.000133963 9.78168e-08)
(0 -0.000181214 -1.1237e-07)
(0 -0.000137736 -1.59239e-07)
(0 -0.000139886 -3.38003e-07)
(0 -0.000151972 -4.41572e-07)
(0 -0.000105699 -3.92113e-07)
(0 -0.000131532 -6.28066e-07)
(0 -9.26955e-05 -3.38292e-07)
(0 -0.000136841 -4.61701e-07)
(0 -8.1164e-05 -2.08207e-07)
(0 -7.65761e-05 -2.5294e-07)
(0 -7.525e-05 -4.77092e-07)
(0 -8.17e-05 -5.51857e-07)
(0 -8.58344e-05 -5.31215e-07)
(0 -6.88825e-05 -3.89131e-07)
(0 -6.40622e-05 -2.1882e-07)
(0 -5.63727e-05 -2.44893e-07)
(0 -6.02368e-05 -2.04281e-07)
(0 -5.85463e-05 -1.45037e-08)
(0 -5.04398e-05 -9.06053e-08)
(0 -4.80151e-05 -2.36796e-07)
(0 -3.61855e-05 -2.46024e-07)
(0 -2.7996e-05 -1.99418e-07)
(0 -2.15979e-05 -1.52425e-07)
(0 -2.13443e-05 -9.99735e-08)
(0 -1.53628e-05 -1.30834e-07)
(0 -1.25763e-05 -2.66747e-07)
(0 -5.55548e-06 -2.58333e-07)
(0 -0.000386048 -1.96343e-05)
(0 -0.00024688 -1.07175e-05)
(0 -0.000313345 -1.14206e-05)
(0 -0.000235014 -7.04399e-06)
(0 -0.000269278 -6.4766e-06)
(0 -0.000378468 -7.17051e-06)
(0 -0.000299929 -4.48045e-06)
(0 -0.000300961 -3.60068e-06)
(0 -0.000337372 -3.39653e-06)
(0 -0.00026139 -2.32655e-06)
(0 -0.000274458 -2.23343e-06)
(0 -0.000384888 -2.88469e-06)
(0 -0.000262747 -1.83956e-06)
(0 -0.000321406 -2.16103e-06)
(0 -0.000251702 -1.68401e-06)
(0 -0.000362028 -2.46664e-06)
(0 -0.00032198 -2.25706e-06)
(0 -0.000252146 -1.83189e-06)
(0 -0.00027636 -2.09347e-06)
(0 -0.000290416 -2.29536e-06)
(0 -0.000322989 -2.65598e-06)
(0 -0.000306323 -2.59611e-06)
(0 -0.000277483 -2.39251e-06)
(0 -0.000388935 -3.35652e-06)
(0 -0.000278125 -2.38089e-06)
(0 -0.000243621 -2.06111e-06)
(0 -0.000254468 -2.1397e-06)
(0 -0.000325451 -2.73024e-06)
(0 -0.000266514 -2.24031e-06)
(0 -0.000366769 -3.1078e-06)
(0 -0.000326289 -2.80537e-06)
(0 -0.000293908 -2.57706e-06)
(0 -0.000326841 -2.9361e-06)
(0 -0.000327123 -3.02441e-06)
(0 -0.000256241 -2.44949e-06)
(0 -0.000294958 -2.92078e-06)
(0 -0.000281198 -2.88373e-06)
(0 -0.000268712 -2.8466e-06)
(0 -0.000281838 -3.06584e-06)
(0 -0.000257644 -2.84918e-06)
(0 -0.000257959 -2.87127e-06)
(0 -0.000282859 -3.1412e-06)
(0 -0.000270304 -2.9781e-06)
(0 -0.000258828 -2.82925e-06)
(0 -0.000248297 -2.69937e-06)
(0 -0.000350884 -3.79924e-06)
(0 -0.00028433 -3.08536e-06)
(0 -0.00037356 -4.08742e-06)
(0 -0.000314903 -3.50732e-06)
(0 -0.000315245 -3.60905e-06)
(0 -0.000352742 -4.19601e-06)
(0 -0.000333569 -4.17338e-06)
(0 -0.000250535 -3.33642e-06)
(0 -0.000316997 -4.54695e-06)
(0 -0.000402343 -6.2878e-06)
(0 -0.000275011 -4.71581e-06)
(0 -0.000289013 -5.45204e-06)
(0 -0.000358421 -7.38946e-06)
(0 -0.000306115 -6.73724e-06)
(0 -0.000279796 -6.22754e-06)
(0 -0.000257827 -5.10348e-06)
(0 -0.00028195 -2.94002e-06)
(0 -0.000274306 3.35407e-06)
(0 -0.000392316 1.09241e-05)
(0 -0.000223183 8.22055e-06)
(0 -0.000264051 8.18096e-06)
(0 -0.000165501 3.53571e-06)
(0 -0.00019261 2.751e-06)
(0 -0.000163542 1.03574e-06)
(0 -0.00014749 5.46315e-07)
(0 -0.000147043 5.49119e-07)
(0 -0.00014056 3.39622e-07)
(0 -0.000157733 2.09112e-07)
(0 -0.000143671 -1.43523e-07)
(0 -0.000176008 -1.19306e-07)
(0 -0.000109813 -1.46516e-07)
(0 -0.000162544 -4.46796e-07)
(0 -0.000106007 -2.16054e-07)
(0 -0.000101065 -2.58492e-07)
(0 -0.000125632 -9.61773e-08)
(0 -9.70363e-05 -2.26151e-07)
(0 -0.000114725 -8.95898e-09)
(0 -0.000124858 -1.45139e-07)
(0 -7.70398e-05 -6.175e-08)
(0 -7.25929e-05 -8.53155e-08)
(0 -6.51825e-05 -1.36573e-07)
(0 -6.0735e-05 -9.0211e-09)
(0 -6.16779e-05 3.33024e-08)
(0 -5.44652e-05 4.15325e-08)
(0 -4.98295e-05 -1.52357e-08)
(0 -6.64818e-05 -4.29184e-08)
(0 -5.42739e-05 -1.45671e-07)
(0 -3.77599e-05 -1.02889e-07)
(0 -3.44882e-05 1.15786e-09)
(0 -2.93453e-05 -5.16559e-08)
(0 -2.68892e-05 6.43136e-09)
(0 -2.29089e-05 -3.62009e-08)
(0 -1.74618e-05 -2.49808e-08)
(0 -1.17832e-05 -1.15232e-07)
(0 -5.01713e-06 -1.08825e-07)
(0 -0.000327767 -1.46447e-05)
(0 -0.000369119 -1.26733e-05)
(0 -0.000324978 -9.42306e-06)
(0 -0.000325427 -7.74876e-06)
(0 -0.000277529 -5.36464e-06)
(0 -0.000232315 -3.52099e-06)
(0 -0.000350191 -4.13588e-06)
(0 -0.000281462 -2.67098e-06)
(0 -0.000235529 -1.89895e-06)
(0 -0.000283622 -2.0803e-06)
(0 -0.000270879 -1.88218e-06)
(0 -0.000316715 -2.12208e-06)
(0 -0.000356893 -2.34462e-06)
(0 -0.000357354 -2.3271e-06)
(0 -0.000272569 -1.7913e-06)
(0 -0.000358093 -2.395e-06)
(0 -0.000358419 -2.45941e-06)
(0 -0.00028701 -2.02755e-06)
(0 -0.000383065 -2.78339e-06)
(0 -0.000359511 -2.68689e-06)
(0 -0.000383928 -2.93848e-06)
(0 -0.000303493 -2.36377e-06)
(0 -0.00033966 -2.67434e-06)
(0 -0.000275344 -2.17164e-06)
(0 -0.000385996 -3.04063e-06)
(0 -0.000276068 -2.16552e-06)
(0 -0.000290234 -2.2674e-06)
(0 -0.000363219 -2.83238e-06)
(0 -0.000277055 -2.1673e-06)
(0 -0.000242698 -1.9091e-06)
(0 -0.000242969 -1.93559e-06)
(0 -0.000343388 -2.78008e-06)
(0 -0.000389598 -3.2182e-06)
(0 -0.000344143 -2.91475e-06)
(0 -0.000278906 -2.43071e-06)
(0 -0.000266533 -2.39339e-06)
(0 -0.000366918 -3.39057e-06)
(0 -0.000309368 -2.932e-06)
(0 -0.000294273 -2.85338e-06)
(0 -0.000327395 -3.22043e-06)
(0 -0.000295035 -2.92999e-06)
(0 -0.000246167 -2.4445e-06)
(0 -0.000347957 -3.45037e-06)
(0 -0.000394832 -3.8986e-06)
(0 -0.000247055 -2.4363e-06)
(0 -0.000312426 -3.0714e-06)
(0 -0.000258394 -2.54297e-06)
(0 -0.000330573 -3.27348e-06)
(0 -0.00025904 -2.60636e-06)
(0 -0.000331439 -3.41693e-06)
(0 -0.000259762 -2.76541e-06)
(0 -0.000351996 -3.91531e-06)
(0 -0.000315498 -3.6966e-06)
(0 -0.000286032 -3.56238e-06)
(0 -0.000316891 -4.23361e-06)
(0 -0.000262519 -3.77336e-06)
(0 -0.000288494 -4.45422e-06)
(0 -0.000357779 -5.90423e-06)
(0 -0.000407234 -7.06552e-06)
(0 -0.000322816 -5.74054e-06)
(0 -0.000256018 -4.54148e-06)
(0 -0.000358747 -6.3971e-06)
(0 -0.000291238 -3.74307e-06)
(0 -0.000326917 1.09592e-05)
(0 -0.000298904 1.12618e-05)
(0 -0.000283567 6.37551e-06)
(0 -0.000175374 3.54671e-06)
(0 -0.000206564 2.00427e-06)
(0 -0.000150499 9.44881e-07)
(0 -0.00013524 4.70012e-07)
(0 -0.000139871 3.93237e-07)
(0 -0.000197322 3.26718e-08)
(0 -0.0001905 -1.94568e-07)
(0 -0.000130356 -1.95898e-07)
(0 -0.000155024 -3.17642e-07)
(0 -0.000149469 -1.60746e-07)
(0 -0.000105551 -2.88898e-07)
(0 -0.000105244 -2.06088e-07)
(0 -9.56864e-05 -2.31268e-07)
(0 -0.000141073 -3.72372e-07)
(0 -8.73261e-05 -2.75258e-07)
(0 -0.00011996 -4.48828e-07)
(0 -7.53042e-05 -2.86146e-07)
(0 -8.9761e-05 -1.0899e-07)
(0 -0.000101081 -1.30275e-07)
(0 -6.55262e-05 -2.7341e-08)
(0 -7.8286e-05 -2.45924e-08)
(0 -7.302e-05 -5.17006e-08)
(0 -7.19514e-05 -1.49568e-08)
(0 -7.09642e-05 -2.10578e-07)
(0 -7.03774e-05 -1.87035e-07)
(0 -4.32136e-05 -1.46965e-07)
(0 -3.62186e-05 -7.81939e-08)
(0 -4.6094e-05 -2.49513e-07)
(0 -2.68583e-05 -1.73484e-07)
(0 -2.65299e-05 -2.2775e-07)
(0 -2.3467e-05 -2.2737e-07)
(0 -2.01632e-05 -7.4404e-08)
(0 -1.36571e-05 -1.43468e-07)
(0 -5.40934e-06 -2.65273e-08)
(0 -0.000234749 -9.04096e-06)
(0 -0.000224677 -6.81223e-06)
(0 -0.000345236 -8.68728e-06)
(0 -0.000305849 -6.03261e-06)
(0 -0.000217833 -3.25869e-06)
(0 -0.000263177 -2.88839e-06)
(0 -0.000240998 -1.93394e-06)
(0 -0.000232105 -1.45533e-06)
(0 -0.000233491 -1.23132e-06)
(0 -0.000224865 -1.12913e-06)
(0 -0.000257975 -1.28157e-06)
(0 -0.000319626 -1.62471e-06)
(0 -0.000286667 -1.50899e-06)
(0 -0.000363842 -1.97103e-06)
(0 -0.000227806 -1.27596e-06)
(0 -0.000288226 -1.66484e-06)
(0 -0.000342812 -2.04582e-06)
(0 -0.000323161 -1.98376e-06)
(0 -0.000343928 -2.15393e-06)
(0 -0.000250561 -1.60434e-06)
(0 -0.000230093 -1.49337e-06)
(0 -0.000240556 -1.56845e-06)
(0 -0.000307987 -2.02095e-06)
(0 -0.000292359 -1.92339e-06)
(0 -0.000371049 -2.4469e-06)
(0 -0.000265541 -1.74956e-06)
(0 -0.000294041 -1.93249e-06)
(0 -0.00037313 -2.45394e-06)
(0 -0.000311492 -2.05774e-06)
(0 -0.000374448 -2.48171e-06)
(0 -0.000296129 -1.98724e-06)
(0 -0.000331533 -2.2536e-06)
(0 -0.000376385 -2.60572e-06)
(0 -0.000257065 -1.81146e-06)
(0 -0.000354079 -2.57653e-06)
(0 -0.00028375 -2.11718e-06)
(0 -0.000236864 -1.80252e-06)
(0 -0.0002476 -1.91641e-06)
(0 -0.000237703 -1.88658e-06)
(0 -0.00038102 -3.08975e-06)
(0 -0.000272638 -2.2353e-06)
(0 -0.000358475 -2.94023e-06)
(0 -0.000337988 -2.79258e-06)
(0 -0.000383733 -3.15959e-06)
(0 -0.00028829 -2.38124e-06)
(0 -0.000251105 -2.05225e-06)
(0 -0.000385712 -3.18628e-06)
(0 -0.000362274 -2.98996e-06)
(0 -0.000241974 -2.01954e-06)
(0 -0.000323265 -2.78359e-06)
(0 -0.000388736 -3.43123e-06)
(0 -0.000343775 -3.1639e-06)
(0 -0.000254711 -2.43571e-06)
(0 -0.000326358 -3.27513e-06)
(0 -0.000327362 -3.48553e-06)
(0 -0.00034782 -3.91114e-06)
(0 -0.000282701 -3.32196e-06)
(0 -0.000298192 -3.69108e-06)
(0 -0.000299688 -3.8729e-06)
(0 -0.000334777 -4.56104e-06)
(0 -0.000263491 -4.068e-06)
(0 -0.000265341 -5.65403e-06)
(0 -0.00026526 -7.20576e-06)
(0 -0.000287189 6.57089e-06)
(0 -0.000338455 1.05334e-05)
(0 -0.000221746 3.78217e-06)
(0 -0.000261729 3.80778e-06)
(0 -0.000165558 1.18449e-06)
(0 -0.000168498 8.35837e-07)
(0 -0.000138157 2.85116e-07)
(0 -0.000198278 2.04024e-08)
(0 -0.000131469 -3.38963e-07)
(0 -0.000131218 -4.24057e-07)
(0 -0.000138317 -5.09845e-07)
(0 -0.000132593 -6.14555e-07)
(0 -0.000170613 -8.89955e-07)
(0 -0.000136637 -7.00851e-07)
(0 -0.00012408 -5.12681e-07)
(0 -0.000107212 -4.74887e-07)
(0 -0.000135306 -8.21982e-07)
(0 -0.000103425 -5.94276e-07)
(0 -8.93197e-05 -5.20389e-07)
(0 -7.71954e-05 -4.63534e-07)
(0 -9.24519e-05 -5.4271e-07)
(0 -7.18055e-05 -3.97476e-07)
(0 -7.76483e-05 -3.47641e-07)
(0 -7.27998e-05 -4.25609e-07)
(0 -6.45399e-05 -3.75435e-07)
(0 -8.50114e-05 -6.22514e-07)
(0 -4.85831e-05 -3.49068e-07)
(0 -7.23346e-05 -3.55442e-07)
(0 -4.70436e-05 -1.02258e-07)
(0 -4.97834e-05 -2.20085e-07)
(0 -3.42182e-05 -2.54373e-07)
(0 -2.92237e-05 -1.29417e-07)
(0 -2.53652e-05 -2.67479e-07)
(0 -1.89938e-05 -2.33722e-07)
(0 -1.98693e-05 -1.29338e-07)
(0 -1.06418e-05 -9.15247e-08)
(0 -5.14373e-06 -7.44225e-08)
(0 -0.000225903 -5.86878e-06)
(0 -0.000240931 -5.11934e-06)
(0 -0.000192979 -3.61285e-06)
(0 -0.000215397 -3.06404e-06)
(0 -0.000217272 -2.22576e-06)
(0 -0.000197718 -1.3904e-06)
(0 -0.00022241 -1.05003e-06)
(0 -0.000253099 -8.91142e-07)
(0 -0.000215375 -6.06328e-07)
(0 -0.000257965 -7.24543e-07)
(0 -0.000230944 -6.52605e-07)
(0 -0.000232342 -7.039e-07)
(0 -0.000262706 -8.65531e-07)
(0 -0.000234576 -8.15427e-07)
(0 -0.000265013 -9.68756e-07)
(0 -0.000202729 -7.72527e-07)
(0 -0.000194267 -7.70219e-07)
(0 -0.000195013 -7.94502e-07)
(0 -0.000226701 -9.36303e-07)
(0 -0.000180189 -7.57529e-07)
(0 -0.000180917 -7.64142e-07)
(0 -0.000272545 -1.13983e-06)
(0 -0.000230519 -9.65294e-07)
(0 -0.000244398 -1.02155e-06)
(0 -0.00018409 -7.72241e-07)
(0 -0.000192911 -8.05763e-07)
(0 -0.000212182 -8.81128e-07)
(0 -0.000203389 -8.44342e-07)
(0 -0.000195346 -8.11984e-07)
(0 -0.000265396 -1.09937e-06)
(0 -0.000215729 -9.02856e-07)
(0 -0.000239413 -1.01054e-06)
(0 -0.00021749 -9.31959e-07)
(0 -0.00030577 -1.3176e-06)
(0 -0.000191884 -8.58161e-07)
(0 -0.000201018 -9.15103e-07)
(0 -0.000232106 -1.06365e-06)
(0 -0.000291373 -1.34358e-06)
(0 -0.000234085 -1.10819e-06)
(0 -0.000204375 -9.97257e-07)
(0 -0.000205183 -1.00858e-06)
(0 -0.000249405 -1.22382e-06)
(0 -0.000206852 -1.02576e-06)
(0 -0.000251419 -1.23676e-06)
(0 -0.000199806 -9.86327e-07)
(0 -0.000321024 -1.54402e-06)
(0 -0.000210207 -1.03311e-06)
(0 -0.000285578 -1.38496e-06)
(0 -0.000325119 -1.57823e-06)
(0 -0.00021294 -1.07467e-06)
(0 -0.000273316 -1.40102e-06)
(0 -0.000205917 -1.0987e-06)
(0 -0.000248285 -1.35651e-06)
(0 -0.000262728 -1.48963e-06)
(0 -0.00021821 -1.30317e-06)
(0 -0.000219445 -1.36336e-06)
(0 -0.000338706 -2.14454e-06)
(0 -0.00025584 -1.68943e-06)
(0 -0.000271379 -1.85103e-06)
(0 -0.000325125 -2.33554e-06)
(0 -0.000219104 -1.81823e-06)
(0 -0.000356177 -4.03941e-06)
(0 -0.000273744 -4.5731e-06)
(0 -0.000361536 1.87316e-06)
(0 -0.000250073 4.18119e-06)
(0 -0.000226783 2.33478e-06)
(0 -0.000255774 1.62721e-06)
(0 -0.000207212 1.02341e-06)
(0 -0.000206298 5.32312e-07)
(0 -0.000173183 1.70347e-07)
(0 -0.000198891 -1.40074e-07)
(0 -0.000168267 -1.80622e-07)
(0 -0.000183836 -3.10469e-07)
(0 -0.000147338 -4.17599e-07)
(0 -0.000150379 -5.01812e-07)
(0 -0.000122812 -5.516e-07)
(0 -9.75304e-05 -4.32457e-07)
(0 -0.000124895 -3.93022e-07)
(0 -0.000120121 -3.60137e-07)
(0 -0.000103558 -4.21684e-07)
(0 -8.55672e-05 -3.22943e-07)
(0 -0.000110884 -3.02768e-07)
(0 -7.41818e-05 -2.59765e-07)