/*--------------------------------*- C++ -*----------------------------------*\
| =========                 |                                                 |
| \\      /  F ield         | foam-extend: Open Source CFD                    |
|  \\    /   O peration     | Version:     5.0                                |
|   \\  /    A nd           | Web:         http://www.foam-extend.org         |
|    \\/     M anipulation  |                                                 |
\*---------------------------------------------------------------------------*/
FoamFile
{
    version     2.0;
    format      ascii;
    class       volVectorField;
    location    "8000";
    object      U.water;
}
// * * * * * * * * * * * * * * * * * * * * * * * * * * * * * * * * * * * * * //

dimensions      [0 1 -1 0 0 0 0];

internalField   nonuniform List<vector> 
1000
(
(0 0 0)
(0 0 0)
(0 0 0)
(0 0 0)
(0 0 0)
(0 0 0)
(0 0 0)
(0 0 0)
(0 0 0)
(0 0 0)
(0 0 0)
(0 0 0)
(0 0 0)
(0 0 0)
(0 0 0)
(0 0 0)
(0 0 0)
(0 0 0)
(0 0 0)
(0 0 0)
(0 0 0)
(0 0 0)
(0 0 0)
(0 0 0)
(0 0 0)
(0 0 0)
(0 0 0)
(0 0 0)
(0 0 0)
(0 0 0)
(0 0 0)
(0 0 0)
(0 0 0)
(0 0 0)
(0 0 0)
(0 0 0)
(0 0 0)
(0 0 0)
(0 0 0)
(0 0 0)
(0 0 0)
(0 0 0)
(0 0 0)
(0 0 0)
(0 0 0)
(0 0 0)
(0 0 0)
(0 0 0)
(0 0 0)
(0 0 0)
(0 0 0)
(0 0 0)
(0 0 0)
(0 0 0)
(0 0 0)
(0 0 0)
(0 7.43845e-16 0)
(0 -0.000225042 -2.44861e-17)
(0 -0.0016682 1.49025e-10)
(0 -0.000930146 7.75136e-09)
(0 -0.000530226 3.61788e-06)
(0 -0.000473674 9.70168e-06)
(0 -0.000395848 8.27686e-06)
(0 -0.000512476 7.25256e-06)
(0 -0.000551217 3.92523e-06)
(0 -0.000437686 1.96294e-06)
(0 -0.000559861 7.46213e-07)
(0 -0.000480987 2.30956e-07)
(0 -0.00056 -3.14738e-07)
(0 -0.000558667 -7.2517e-07)
(0 -0.000589145 -1.11046e-06)
(0 -0.000475424 -8.89257e-07)
(0 -0.000619815 -1.57379e-06)
(0 -0.000519509 -1.31528e-06)
(0 -0.000516628 -1.2433e-06)
(0 -0.000513836 -1.20707e-06)
(0 -0.000539228 -1.32869e-06)
(0 -0.000535967 -1.48024e-06)
(0 -0.000598632 -1.80933e-06)
(0 -0.00045336 -1.4802e-06)
(0 -0.000496706 -1.59642e-06)
(0 -0.000492613 -1.75059e-06)
(0 -0.000487954 -2.04354e-06)
(0 -0.000573104 -2.49987e-06)
(0 -0.000534234 -2.33355e-06)
(0 -0.000428192 -2.02291e-06)
(0 -0.00055441 -2.82022e-06)
(0 -0.000381874 -1.70033e-06)
(0 -0.000412727 -1.7963e-06)
(0 -0.000388763 -1.98122e-06)
(0 -0.000560303 -3.5911e-06)
(0 -0.000435871 -2.93588e-06)
(0 -0.000370192 -2.2999e-06)
(0 -0.000443713 -3.02183e-06)
(0 -0.000460946 -3.60471e-06)
(0 -0.000384034 -3.15529e-06)
(0 -0.000357286 -2.88526e-06)
(0 -0.000332501 -2.68049e-06)
(0 -0.000472161 -5.14187e-06)
(0 -0.000403404 -5.50741e-06)
(0 0 0)
(0 0 0)
(0 0 0)
(0 0 0)
(0 0 0)
(0 0 0)
(0 0 0)
(0 0 0)
(0 0 0)
(0 0 0)
(0 0 0)
(0 0 0)
(0 0 0)
(0 0 0)
(0 0 0)
(0 0 0)
(0 0 0)
(0 0 0)
(0 0 0)
(0 0 0)
(0 0 0)
(0 0 0)
(0 0 0)
(0 0 0)
(0 0 0)
(0 0 0)
(0 0 0)
(0 0 0)
(0 0 0)
(0 0 0)
(0 0 0)
(0 0 0)
(0 0 0)
(0 0 0)
(0 0 0)
(0 0 0)
(0 0 0)
(0 0 0)
(0 0 0)
(0 0 0)
(0 0 0)
(0 0 0)
(0 0 0)
(0 0 0)
(0 0 0)
(0 0 0)
(0 0 0)
(0 0 0)
(0 0 0)
(0 0 0)
(0 0 0)
(0 0 0)
(0 0 0)
(0 0 0)
(0 0 0)
(0 0 0)
(0 6.30759e-26 0)
(0 -2.23224e-09 -2.44861e-17)
(0 -0.00200109 3.3673e-08)
(0 -0.00117465 7.15491e-08)
(0 -0.000597721 7.74078e-06)
(0 -0.00048244 3.21751e-05)
(0 -0.000493856 3.6208e-05)
(0 -0.00046535 2.15582e-05)
(0 -0.000432398 1.03055e-05)
(0 -0.000606827 7.25335e-06)
(0 -0.000399502 1.66728e-06)
(0 -0.000572652 1.17966e-07)
(0 -0.00053858 -1.50219e-06)
(0 -0.000537447 -2.6465e-06)
(0 -0.00045624 -2.73664e-06)
(0 -0.000433702 -2.45107e-06)
(0 -0.000379354 -2.37749e-06)
(0 -0.000453733 -3.23883e-06)
(0 -0.000531111 -4.10313e-06)
(0 -0.000598253 -4.98894e-06)
(0 -0.000594515 -5.21813e-06)
(0 -0.000444048 -3.75128e-06)
(0 -0.00051941 -4.71137e-06)
(0 -0.000366682 -3.40283e-06)
(0 -0.000545154 -5.55418e-06)
(0 -0.000481298 -5.3318e-06)
(0 -0.000358939 -4.11125e-06)
(0 -0.000533135 -6.80543e-06)
(0 -0.000528836 -6.82576e-06)
(0 -0.000350429 -4.44653e-06)
(0 -0.000438062 -6.05504e-06)
(0 -0.00045748 -6.27497e-06)
(0 -0.000508193 -7.04756e-06)
(0 -0.000365872 -5.2938e-06)
(0 -0.00034633 -5.22499e-06)
(0 -0.000328806 -5.07411e-06)
(0 -0.000457366 -7.54838e-06)
(0 -0.000510725 -9.30682e-06)
(0 -0.000420072 -8.01978e-06)
(0 -0.000372614 -7.16625e-06)
(0 -0.000430026 -8.56691e-06)
(0 -0.000447655 -8.90736e-06)
(0 -0.000467663 -1.16201e-05)
(0 -0.000381464 -1.12778e-05)
(0 0 0)
(0 0 0)
(0 0 0)
(0 0 0)
(0 0 0)
(0 0 0)
(0 0 0)
(0 0 0)
(0 0 0)
(0 0 0)
(0 0 0)
(0 0 0)
(0 0 0)
(0 0 0)
(0 0 0)
(0 0 0)
(0 0 0)
(0 0 0)
(0 0 0)
(0 0 0)
(0 0 0)
(0 0 0)
(0 0 0)
(0 0 0)
(0 0 0)
(0 0 0)
(0 0 0)
(0 0 0)
(0 0 0)
(0 0 0)
(0 0 0)
(0 0 0)
(0 0 0)
(0 0 0)
(0 0 0)
(0 0 0)
(0 0 0)
(0 0 0)
(0 0 0)
(0 0 0)
(0 0 0)
(0 0 0)
(0 0 0)
(0 0 0)
(0 0 0)
(0 0 0)
(0 0 0)
(0 0 0)
(0 0 0)
(0 0 0)
(0 0 0)
(0 0 0)
(0 0 0)
(0 0 0)
(0 0 0)
(0 0 0)
(0 0 0)
(0 6.59832e-22 -1.49128e-27)
(0 -1.94783e-07 2.03472e-11)
(0 -0.0020306 -1.48345e-11)
(0 -0.00118786 6.47949e-06)
(0 -0.000565663 7.82378e-05)
(0 -0.00041636 4.71871e-05)
(0 -0.000462312 3.18654e-05)
(0 -0.000377486 1.40434e-05)
(0 -0.000368835 6.34792e-06)
(0 -0.000472943 2.32785e-06)
(0 -0.000449491 -1.00365e-06)
(0 -0.000474922 -2.98751e-06)
(0 -0.000389825 -3.31264e-06)
(0 -0.000358057 -3.19032e-06)
(0 -0.000451187 -4.10925e-06)
(0 -0.000533878 -5.11259e-06)
(0 -0.000356159 -3.67896e-06)
(0 -0.000405964 -4.85916e-06)
(0 -0.000370242 -4.77757e-06)
(0 -0.000386105 -5.32232e-06)
(0 -0.000562906 -7.54243e-06)
(0 -0.000421047 -5.67267e-06)
(0 -0.0003814 -5.02356e-06)
(0 -0.000348471 -4.95211e-06)
(0 -0.000347177 -5.30209e-06)
(0 -0.000459649 -7.17238e-06)
(0 -0.000343471 -5.69617e-06)
(0 -0.000390287 -6.53571e-06)
(0 -0.000428537 -7.06094e-06)
(0 -0.000367854 -6.32557e-06)
(0 -0.000335067 -6.02846e-06)
(0 -0.000379787 -6.96133e-06)
(0 -0.000329973 -5.80678e-06)
(0 -0.000521412 -9.12605e-06)
(0 -0.000455568 -8.28209e-06)
(0 -0.000402912 -8.72011e-06)
(0 -0.000419529 -9.95644e-06)
(0 -0.000437977 -1.04097e-05)
(0 -0.0004075 -9.7143e-06)
(0 -0.000314275 -7.38768e-06)
(0 -0.000442793 -1.09142e-05)
(0 -0.000349332 -9.10527e-06)
(0 -0.000312448 -8.76129e-06)
(0 0 0)
(0 0 0)
(0 0 0)
(0 0 0)
(0 0 0)
(0 0 0)
(0 0 0)
(0 0 0)
(0 0 0)
(0 0 0)
(0 0 0)
(0 0 0)
(0 0 0)
(0 0 0)
(0 0 0)
(0 0 0)
(0 0 0)
(0 0 0)
(0 0 0)
(0 0 0)
(0 0 0)
(0 0 0)
(0 0 0)
(0 0 0)
(0 0 0)
(0 0 0)
(0 0 0)
(0 0 0)
(0 0 0)
(0 0 0)
(0 0 0)
(0 0 0)
(0 0 0)
(0 0 0)
(0 0 0)
(0 0 0)
(0 0 0)
(0 0 0)
(0 0 0)
(0 0 0)
(0 0 0)
(0 0 0)
(0 0 0)
(0 0 0)
(0 0 0)
(0 0 0)
(0 0 0)
(0 0 0)
(0 0 0)
(0 0 0)
(0 0 0)
(0 0 0)
(0 0 0)
(0 0 0)
(0 0 0)
(0 0 0)
(0 0 0)
(0 1.09718e-35 0)
(0 -2.38643e-13 -7.38926e-24)
(0 -0.00237722 -1.18837e-14)
(0 -0.00149055 1.01733e-08)
(0 -0.000790345 7.83555e-06)
(0 -0.000496622 3.14729e-05)
(0 -0.000483125 3.33252e-05)
(0 -0.000432399 1.79153e-05)
(0 -0.000518965 1.09044e-05)
(0 -0.000367349 2.06122e-06)
(0 -0.000469239 -1.28047e-06)
(0 -0.000386239 -2.28386e-06)
(0 -0.000405606 -3.30549e-06)
(0 -0.000566032 -5.73419e-06)
(0 -0.000529499 -6.10564e-06)
(0 -0.000469946 -5.92868e-06)
(0 -0.000561893 -7.00917e-06)
(0 -0.00036667 -4.77675e-06)
(0 -0.000466932 -6.48168e-06)
(0 -0.000350205 -5.01709e-06)
(0 -0.000492226 -7.84732e-06)
(0 -0.00046352 -7.14152e-06)
(0 -0.000437571 -6.63631e-06)
(0 -0.00051662 -8.17343e-06)
(0 -0.000391976 -6.58319e-06)
(0 -0.00037213 -6.65249e-06)
(0 -0.000387594 -6.70965e-06)
(0 -0.000404729 -6.95733e-06)
(0 -0.000335974 -5.81204e-06)
(0 -0.00036434 -6.1921e-06)
(0 -0.00033216 -5.76384e-06)
(0 -0.000344116 -5.9109e-06)
(0 -0.000373909 -6.33027e-06)
(0 -0.000485753 -9.45944e-06)
(0 -0.000512989 -1.09656e-05)
(0 -0.000318195 -7.26481e-06)
(0 -0.000343036 -8.2771e-06)
(0 -0.000413909 -1.05478e-05)
(0 -0.000334776 -8.46249e-06)
(0 -0.000481778 -1.21919e-05)
(0 -0.000395006 -1.05065e-05)
(0 -0.000410594 -1.00892e-05)
(0 -0.000312379 -6.62126e-06)
(0 0 0)
(0 0 0)
(0 0 0)
(0 0 0)
(0 0 0)
(0 0 0)
(0 0 0)
(0 0 0)
(0 0 0)
(0 0 0)
(0 0 0)
(0 0 0)
(0 0 0)
(0 0 0)
(0 0 0)
(0 0 0)
(0 0 0)
(0 0 0)
(0 0 0)
(0 0 0)
(0 0 0)
(0 0 0)
(0 0 0)
(0 0 0)
(0 0 0)
(0 0 0)
(0 0 0)
(0 0 0)
(0 0 0)
(0 0 0)
(0 0 0)
(0 0 0)
(0 0 0)
(0 0 0)
(0 0 0)
(0 0 0)
(0 0 0)
(0 0 0)
(0 0 0)
(0 0 0)
(0 0 0)
(0 0 0)
(0 0 0)
(0 0 0)
(0 0 0)
(0 0 0)
(0 0 0)
(0 0 0)
(0 0 0)
(0 0 0)
(0 0 0)
(0 0 0)
(0 0 0)
(0 0 0)
(0 0 0)
(0 0 0)
(0 0 0)
(0 0 0)
(0 3.66939e-22 -1.77633e-37)
(0 -1.27283e-07 2.3323e-15)
(0 -0.00189382 1.75595e-08)
(0 -0.00109035 1.31614e-06)
(0 -0.000539505 2.54434e-05)
(0 -0.000427738 3.46492e-05)
(0 -0.000499469 2.54304e-05)
(0 -0.000413514 9.58102e-06)
(0 -0.000380832 3.11424e-06)
(0 -0.000351152 -7.21007e-08)
(0 -0.000559275 -2.25023e-06)
(0 -0.000442575 -3.10161e-06)
(0 -0.000366531 -3.70728e-06)
(0 -0.000401468 -4.51878e-06)
(0 -0.000383702 -4.59707e-06)
(0 -0.000421878 -5.13622e-06)
(0 -0.000495473 -6.10639e-06)
(0 -0.000400893 -5.30405e-06)
(0 -0.000559002 -7.55273e-06)
(0 -0.000364547 -5.56227e-06)
(0 -0.000556061 -8.61726e-06)
(0 -0.000519621 -8.18618e-06)
(0 -0.000395164 -6.20781e-06)
(0 -0.000376253 -6.09028e-06)
(0 -0.000358608 -6.01325e-06)
(0 -0.000511841 -8.88768e-06)
(0 -0.000542482 -9.48262e-06)
(0 -0.00044937 -7.63026e-06)
(0 -0.000534611 -9.19809e-06)
(0 -0.0003622 -6.16432e-06)
(0 -0.000492375 -8.61707e-06)
(0 -0.00048765 -8.74145e-06)
(0 -0.000352376 -6.79375e-06)
(0 -0.000320909 -6.61428e-06)
(0 -0.000331982 -6.86206e-06)
(0 -0.000397141 -8.91914e-06)
(0 -0.000355331 -8.7837e-06)
(0 -0.000408316 -1.02805e-05)
(0 -0.000329783 -8.44134e-06)
(0 -0.000340199 -8.61904e-06)
(0 -0.000412236 -9.81034e-06)
(0 -0.000456278 -9.42558e-06)
(0 0 0)
(0 0 0)
(0 0 0)
(0 0 0)
(0 0 0)
(0 0 0)
(0 0 0)
(0 0 0)
(0 0 0)
(0 0 0)
(0 0 0)
(0 0 0)
(0 0 0)
(0 0 0)
(0 0 0)
(0 0 0)
(0 0 0)
(0 0 0)
(0 0 0)
(0 0 0)
(0 0 0)
(0 0 0)
(0 0 0)
(0 0 0)
(0 0 0)
(0 0 0)
(0 0 0)
(0 0 0)
(0 0 0)
(0 0 0)
(0 0 0)
(0 0 0)
(0 0 0)
(0 0 0)
(0 0 0)
(0 0 0)
(0 0 0)
(0 0 0)
(0 0 0)
(0 0 0)
(0 0 0)
(0 0 0)
(0 0 0)
(0 0 0)
(0 0 0)
(0 0 0)
(0 0 0)
(0 0 0)
(0 0 0)
(0 0 0)
(0 0 0)
(0 0 0)
(0 0 0)
(0 0 0)
(0 0 0)
(0 0 0)
(0 0 0)
(0 0 0)
(0 0 0)
(0 3.9794e-16 -6.83869e-24)
(0 -0.000120695 2.09841e-09)
(0 -0.00149082 8.39414e-07)
(0 -0.000794006 1.1339e-05)
(0 -0.000406855 2.65541e-05)
(0 -0.000350136 1.39e-05)
(0 -0.000375462 7.63457e-06)
(0 -0.000349717 3.45161e-06)
(0 -0.00035111 1.08415e-06)
(0 -0.000467041 -1.53373e-06)
(0 -0.000467246 -3.17687e-06)
(0 -0.000351431 -2.93572e-06)
(0 -0.000467269 -4.47897e-06)
(0 -0.000400666 -4.1037e-06)
(0 -0.000558839 -6.32251e-06)
(0 -0.000440859 -5.23685e-06)
(0 -0.000464066 -6.01696e-06)
(0 -0.000520112 -7.18686e-06)
(0 -0.000377831 -5.52571e-06)
(0 -0.000486488 -7.66204e-06)
(0 -0.000359163 -5.52936e-06)
(0 -0.000547498 -8.36367e-06)
(0 -0.000341706 -4.98346e-06)
(0 -0.000340446 -4.99042e-06)
(0 -0.000353828 -5.7969e-06)
(0 -0.000404781 -7.0128e-06)
(0 -0.000447035 -7.8716e-06)
(0 -0.000381102 -6.78971e-06)
(0 -0.000378535 -6.4499e-06)
(0 -0.000358869 -6.42778e-06)
(0 -0.000412152 -7.62435e-06)
(0 -0.000431648 -7.61352e-06)
(0 -0.000405581 -7.37758e-06)
(0 -0.000423443 -8.37533e-06)
(0 -0.000359181 -7.73158e-06)
(0 -0.000324388 -7.38295e-06)
(0 -0.000307202 -7.11079e-06)
(0 -0.000382152 -8.57107e-06)
(0 -0.000376377 -8.37718e-06)
(0 -0.000467007 -1.11384e-05)
(0 -0.000456172 -1.20092e-05)
(0 0 0)
(0 0 0)
(0 0 0)
(0 0 0)
(0 0 0)
(0 0 0)
(0 0 0)
(0 0 0)
(0 0 0)
(0 0 0)
(0 0 0)
(0 0 0)
(0 0 0)
(0 0 0)
(0 0 0)
(0 0 0)
(0 0 0)
(0 0 0)
(0 0 0)
(0 0 0)
(0 0 0)
(0 0 0)
(0 0 0)
(0 0 0)
(0 0 0)
(0 0 0)
(0 0 0)
(0 0 0)
(0 0 0)
(0 0 0)
(0 0 0)
(0 0 0)
(0 0 0)
(0 0 0)
(0 0 0)
(0 0 0)
(0 0 0)
(0 0 0)
(0 0 0)
(0 0 0)
(0 0 0)
(0 0 0)
(0 0 0)
(0 0 0)
(0 0 0)
(0 0 0)
(0 0 0)
(0 0 0)
(0 0 0)
(0 0 0)
(0 0 0)
(0 0 0)
(0 0 0)
(0 0 0)
(0 0 0)
(0 0 0)
(0 0 0)
(0 0 0)
(0 0 0)
(0 3.58756e-15 -5.6307e-45)
(0 -0.000693168 -2.98307e-14)
(0 -0.0014329 -4.43666e-09)
(0 -0.000764572 -3.96935e-07)
(0 -0.000482753 -1.3203e-06)
(0 -0.000356309 3.72475e-06)
(0 -0.000484141 7.7625e-06)
(0 -0.000351238 3.78234e-06)
(0 -0.000441491 2.00849e-06)
(0 -0.000400214 -9.00771e-07)
(0 -0.000382356 -2.33114e-06)
(0 -0.000400203 -2.86973e-06)
(0 -0.000399976 -3.38285e-06)
(0 -0.000465847 -4.41414e-06)
(0 -0.000440872 -5.01442e-06)
(0 -0.000556609 -6.6143e-06)
(0 -0.000363332 -4.55685e-06)
(0 -0.000554622 -7.79273e-06)
(0 -0.000377962 -5.40053e-06)
(0 -0.000376936 -5.7005e-06)
(0 -0.0004857 -7.01907e-06)
(0 -0.000392295 -6.07937e-06)
(0 -0.000481728 -7.09118e-06)
(0 -0.000542175 -8.35229e-06)
(0 -0.000352109 -5.50437e-06)
(0 -0.000350299 -5.63737e-06)
(0 -0.000334254 -5.66302e-06)
(0 -0.00033252 -5.44863e-06)
(0 -0.000360458 -5.75106e-06)
(0 -0.000342739 -5.45072e-06)
(0 -0.000340434 -5.64583e-06)
(0 -0.000484741 -8.17202e-06)
(0 -0.000427577 -7.85376e-06)
(0 -0.000331809 -6.5532e-06)
(0 -0.000343067 -6.82523e-06)
(0 -0.00033893 -7.15184e-06)
(0 -0.000366956 -7.80765e-06)
(0 -0.000379889 -8.31128e-06)
(0 -0.000373568 -8.13273e-06)
(0 -0.000367177 -8.86276e-06)
(0 -0.000342673 -9.22341e-06)
(0 0 0)
(0 0 0)
(0 0 0)
(0 0 0)
(0 0 0)
(0 0 0)
(0 0 0)
(0 0 0)
(0 0 0)
(0 0 0)
(0 0 0)
(0 0 0)
(0 0 0)
(0 0 0)
(0 0 0)
(0 0 0)
(0 0 0)
(0 0 0)
(0 0 0)
(0 0 0)
(0 0 0)
(0 0 0)
(0 0 0)
(0 0 0)
(0 0 0)
(0 0 0)
(0 0 0)
(0 0 0)
(0 0 0)
(0 0 0)
(0 0 0)
(0 0 0)
(0 0 0)
(0 0 0)
(0 0 0)
(0 0 0)
(0 0 0)
(0 0 0)
(0 0 0)
(0 0 0)
(0 0 0)
(0 0 0)
(0 0 0)
(0 0 0)
(0 0 0)
(0 0 0)
(0 0 0)
(0 0 0)
(0 0 0)
(0 0 0)
(0 0 0)
(0 0 0)
(0 0 0)
(0 0 0)
(0 0 0)
(0 0 0)
(0 0 0)
(0 0 0)
(0 5.73125e-34 0)
(0 -5.04102e-13 -1.96729e-35)
(0 -0.00224747 -6.73462e-15)
(0 -0.00137923 -1.09322e-09)
(0 -0.000730521 -8.15745e-08)
(0 -0.000455291 6.06764e-06)
(0 -0.00046547 9.60084e-06)
(0 -0.000510459 8.85259e-06)
(0 -0.000364355 4.13093e-06)
(0 -0.000463668 1.91052e-06)
(0 -0.000364549 -3.35042e-07)
(0 -0.000349843 -1.43235e-06)
(0 -0.00038142 -2.05541e-06)
(0 -0.000557392 -4.25688e-06)
(0 -0.000556028 -5.18443e-06)
(0 -0.000397278 -4.15637e-06)
(0 -0.000489415 -5.58942e-06)
(0 -0.000488614 -5.50566e-06)
(0 -0.000361408 -4.48438e-06)
(0 -0.000377431 -4.60394e-06)
(0 -0.000360603 -4.53848e-06)
(0 -0.000550545 -7.17279e-06)
(0 -0.000359053 -4.87796e-06)
(0 -0.000513466 -7.373e-06)
(0 -0.000341924 -5.1813e-06)
(0 -0.000429527 -6.16805e-06)
(0 -0.000507176 -7.3532e-06)
(0 -0.000351661 -4.99765e-06)
(0 -0.000446038 -6.33728e-06)
(0 -0.000443036 -6.42401e-06)
(0 -0.000465376 -6.73386e-06)
(0 -0.000489987 -7.78084e-06)
(0 -0.000517976 -8.41415e-06)
(0 -0.000351426 -5.89666e-06)
(0 -0.000333388 -5.57397e-06)
(0 -0.000473227 -8.61545e-06)
(0 -0.000326152 -6.25269e-06)
(0 -0.000388656 -8.11813e-06)
(0 -0.000427285 -9.6607e-06)
(0 -0.000475695 -1.05764e-05)
(0 -0.000467085 -1.13383e-05)
(0 -0.000403248 -1.03247e-05)
(0 0 0)
(0 0 0)
(0 0 0)
(0 0 0)
(0 0 0)
(0 0 0)
(0 0 0)
(0 0 0)
(0 0 0)
(0 0 0)
(0 0 0)
(0 0 0)
(0 0 0)
(0 0 0)
(0 0 0)
(0 0 0)
(0 0 0)
(0 0 0)
(0 0 0)
(0 0 0)
(0 0 0)
(0 0 0)
(0 0 0)
(0 0 0)
(0 0 0)
(0 0 0)
(0 0 0)
(0 0 0)
(0 0 0)
(0 0 0)
(0 0 0)
(0 0 0)
(0 0 0)
(0 0 0)
(0 0 0)
(0 0 0)
(0 0 0)
(0 0 0)
(0 0 0)
(0 0 0)
(0 0 0)
(0 0 0)
(0 0 0)
(0 0 0)
(0 0 0)
(0 0 0)
(0 0 0)
(0 0 0)
(0 0 0)
(0 0 0)
(0 0 0)
(0 0 0)
(0 0 0)
(0 0 0)
(0 0 0)
(0 0 0)
(0 0 0)
(0 0 0)
(0 0 0)
(0 3.16882e-21 -1.96729e-35)
(0 -4.98253e-07 1.63217e-14)
(0 -0.00172952 6.07339e-08)
(0 -0.000968788 8.42802e-07)
(0 -0.000489453 1.2308e-05)
(0 -0.00046151 1.72538e-05)
(0 -0.000380087 6.14306e-06)
(0 -0.000498345 4.45898e-06)
(0 -0.000351329 1.2041e-06)
(0 -0.000384733 1.64705e-07)
(0 -0.000337578 -6.36681e-07)
(0 -0.000504185 -1.80605e-06)
(0 -0.000352129 -2.08057e-06)
(0 -0.000368782 -2.62357e-06)
(0 -0.000406053 -3.17905e-06)
(0 -0.000406345 -3.5696e-06)
(0 -0.000540814 -5.20463e-06)
(0 -0.000450345 -4.5077e-06)
(0 -0.000425879 -4.01281e-06)
(0 -0.000384912 -3.66614e-06)
(0 -0.000503562 -5.48341e-06)
(0 -0.000402418 -4.49119e-06)
(0 -0.00036525 -4.19459e-06)
(0 -0.000334285 -3.95415e-06)
(0 -0.000420167 -5.02012e-06)
(0 -0.000346369 -4.13578e-06)
(0 -0.000396408 -4.51762e-06)
(0 -0.00039443 -4.82593e-06)
(0 -0.000373698 -4.75721e-06)
(0 -0.000518899 -7.42476e-06)
(0 -0.000322875 -4.96692e-06)
(0 -0.000511316 -7.78578e-06)
(0 -0.00036338 -5.02809e-06)
(0 -0.000419604 -6.14007e-06)
(0 -0.000325552 -5.47769e-06)
(0 -0.000321876 -5.29487e-06)
(0 -0.000332129 -6.40434e-06)
(0 -0.000313201 -6.83927e-06)
(0 -0.00041626 -9.06973e-06)
(0 -0.000332891 -7.65948e-06)
(0 -0.000360661 -9.06226e-06)
(0 0 0)
(0 0 0)
(0 0 0)
(0 0 0)
(0 0 0)
(0 0 0)
(0 0 0)
(0 0 0)
(0 0 0)
(0 0 0)
(0 0 0)
(0 0 0)
(0 0 0)
(0 0 0)
(0 0 0)
(0 0 0)
(0 0 0)
(0 0 0)
(0 0 0)
(0 0 0)
(0 0 0)
(0 0 0)
(0 0 0)
(0 0 0)
(0 0 0)
(0 0 0)
(0 0 0)
(0 0 0)
(0 0 0)
(0 0 0)
(0 0 0)
(0 0 0)
(0 0 0)
(0 0 0)
(0 0 0)
(0 0 0)
(0 0 0)
(0 0 0)
(0 0 0)
(0 0 0)
(0 0 0)
(0 0 0)
(0 0 0)
(0 0 0)
(0 0 0)
(0 0 0)
(0 0 0)
(0 0 0)
(0 0 0)
(0 0 0)
(0 0 0)
(0 0 0)
(0 0 0)
(0 0 0)
(0 0 0)
(0 0 0)
(0 0 0)
(0 0 0)
(0 0 0)
(0 6.58928e-26 0)
(0 -2.70597e-09 -8.32025e-23)
(0 -0.00189056 1.17845e-10)
(0 -0.00109325 3.29106e-08)
(0 -0.0005646 2.7939e-06)
(0 -0.000352594 8.24402e-06)
(0 -0.000370717 2.73378e-06)
(0 -0.000466684 1.59657e-06)
(0 -0.000412215 7.1123e-07)
(0 -0.000436063 2.05439e-07)
(0 -0.00038739 -2.61829e-07)
(0 -0.000463828 -9.45026e-07)
(0 -0.000410054 -1.06087e-06)
(0 -0.000464781 -1.3534e-06)
(0 -0.000388486 -1.42746e-06)
(0 -0.000412162 -1.73871e-06)
(0 -0.000351944 -1.88551e-06)
(0 -0.000294811 -1.70687e-06)
(0 -0.000393369 -2.00922e-06)
(0 -0.000394221 -1.95902e-06)
(0 -0.000355917 -2.13188e-06)
(0 -0.000310579 -1.92114e-06)
(0 -0.000420159 -2.37649e-06)
(0 -0.000298625 -1.81644e-06)
(0 -0.000341199 -2.17599e-06)
(0 -0.000377087 -2.218e-06)
(0 -0.000377057 -2.24961e-06)
(0 -0.000341262 -2.21804e-06)
(0 -0.000397651 -2.63863e-06)
(0 -0.00031186 -2.57831e-06)
(0 -0.000311768 -2.51548e-06)
(0 -0.000397446 -3.26463e-06)
(0 -0.000476181 -3.36987e-06)
(0 -0.000357105 -2.89133e-06)
(0 -0.000323746 -2.77062e-06)
(0 -0.000416263 -3.37825e-06)
(0 -0.000320817 -3.11708e-06)
(0 -0.00030503 -3.29882e-06)
(0 -0.000463101 -4.97112e-06)
(0 -0.000432083 -4.51628e-06)
(0 -0.000380886 -4.48123e-06)
)
;

boundaryField
{
    inlet
    {
        type            fixedValue;
        value           uniform (0 -0.0005 0);
    }
    outlet
    {
        type            fluxCorrectedVelocity;
        phi             phi.water;
        rho             rho.water;
        value           uniform (0 0 0);
    }
    walls
    {
        type            fixedValue;
        value           uniform (0 0 0);
    }
}


// ************************************************************************* //
