/*--------------------------------*- C++ -*----------------------------------*\
| =========                 |                                                 |
| \\      /  F ield         | foam-extend: Open Source CFD                    |
|  \\    /   O peration     | Version:     5.0                                |
|   \\  /    A nd           | Web:         http://www.foam-extend.org         |
|    \\/     M anipulation  |                                                 |
\*---------------------------------------------------------------------------*/
FoamFile
{
    version     2.0;
    format      ascii;
    class       volVectorField;
    location    "2";
    object      U.gas;
}
// * * * * * * * * * * * * * * * * * * * * * * * * * * * * * * * * * * * * * //

dimensions      [0 1 -1 0 0 0 0];

internalField   nonuniform List<vector> 
100
(
(0.00920494 0 0)
(0.0108492 0 0)
(0.0120102 0 0)
(0.0129308 0 0)
(0.0137092 0 0)
(0.0143608 0 0)
(0.0149768 0 0)
(0.0155129 0 0)
(0.0159946 0 0)
(0.0164455 0 0)
(0.0168416 0 0)
(0.0172114 0 0)
(0.0175386 0 0)
(0.0178629 0 0)
(0.0181827 0 0)
(0.0184688 0 0)
(0.0187402 0 0)
(0.0189731 0 0)
(0.019181 0 0)
(0.0193856 0 0)
(0.0196131 0 0)
(0.0197851 0 0)
(0.0199536 0 0)
(0.020131 0 0)
(0.0202993 0 0)
(0.0204603 0 0)
(0.0205639 0 0)
(0.0207122 0 0)
(0.0208327 0 0)
(0.0209298 0 0)
(0.0210265 0 0)
(0.0211233 0 0)
(0.0212057 0 0)
(0.0213077 0 0)
(0.0213947 0 0)
(0.0214654 0 0)
(0.0215219 0 0)
(0.0215543 0 0)
(0.021609 0 0)
(0.0216456 0 0)
(0.0216627 0 0)
(0.021679 0 0)
(0.021668 0 0)
(0.0216539 0 0)
(0.0216322 0 0)
(0.0215979 0 0)
(0.0215461 0 0)
(0.0214901 0 0)
(0.0214269 0 0)
(0.0213558 0 0)
(0.0212687 0 0)
(0.0211583 0 0)
(0.0210354 0 0)
(0.0209057 0 0)
(0.0207476 0 0)
(0.0205695 0 0)
(0.0203696 0 0)
(0.0201454 0 0)
(0.0199025 0 0)
(0.0196452 0 0)
(0.0193571 0 0)
(0.0190486 0 0)
(0.0187169 0 0)
(0.0183647 0 0)
(0.0179892 0 0)
(0.0176048 0 0)
(0.0172102 0 0)
(0.0168106 0 0)
(0.0164244 0 0)
(0.0160461 0 0)
(0.0156913 0 0)
(0.0153653 0 0)
(0.0150726 0 0)
(0.01481 0 0)
(0.0145803 0 0)
(0.014386 0 0)
(0.0142188 0 0)
(0.0140807 0 0)
(0.0139718 0 0)
(0.0138835 0 0)
(0.0138091 0 0)
(0.0137509 0 0)
(0.0137042 0 0)
(0.0136718 0 0)
(0.0136396 0 0)
(0.0136109 0 0)
(0.0135934 0 0)
(0.013579 0 0)
(0.0135642 0 0)
(0.0135607 0 0)
(0.0135526 0 0)
(0.0135435 0 0)
(0.013536 0 0)
(0.0135354 0 0)
(0.0135332 0 0)
(0.0135332 0 0)
(0.0135325 0 0)
(0.0135342 0 0)
(0.0135351 0 0)
(0.0135314 0 0)
)
;

boundaryField
{
    inlet
    {
        type            fixedValue;
        value           uniform (0.005 0 0);
    }
    outlet
    {
        type            zeroGradient;
    }
    yzfaces
    {
        type            empty;
    }
}


// ************************************************************************* //
