/*--------------------------------*- C++ -*----------------------------------*\
| =========                 |                                                 |
| \\      /  F ield         | foam-extend: Open Source CFD                    |
|  \\    /   O peration     | Version:     5.0                                |
|   \\  /    A nd           | Web:         http://www.foam-extend.org         |
|    \\/     M anipulation  |                                                 |
\*---------------------------------------------------------------------------*/
FoamFile
{
    version     2.0;
    format      ascii;
    class       volScalarField;
    location    "1";
    object      S.gas;
}
// * * * * * * * * * * * * * * * * * * * * * * * * * * * * * * * * * * * * * //

dimensions      [0 0 0 0 0 0 0];

internalField   nonuniform List<scalar> 
100
(
0.321143
0.304965
0.290386
0.276942
0.264357
0.251824
0.240288
0.229947
0.220144
0.210889
0.202426
0.194848
0.187151
0.180052
0.173527
0.16708
0.160999
0.155205
0.149701
0.144229
0.139099
0.134131
0.129291
0.124635
0.119963
0.115427
0.11094
0.106576
0.102274
0.0980092
0.0938081
0.0897271
0.0856707
0.0817579
0.0779728
0.0743896
0.0709758
0.0678428
0.064906
0.0623316
0.0600421
0.0580377
0.0563912
0.0550074
0.0538749
0.0529528
0.0522488
0.0517025
0.0512411
0.050949
0.0506827
0.0505047
0.0503532
0.0502646
0.0502149
0.05012
0.050109
0.0500807
0.0500706
0.0500204
0.0500222
0.0500084
0.0500277
0.0500026
0.0500087
0.0500042
0.0499888
0.0499988
0.049969
0.0500082
0.050009
0.0499865
0.0500054
0.0499961
0.0500164
0.0499871
0.0499832
0.0500157
0.0500063
0.0499858
0.0500096
0.0500109
0.0500178
0.0500137
0.0499888
0.0500068
0.0500069
0.0500093
0.0500154
0.0500346
0.0500218
0.0500007
0.050007
0.0499927
0.0499904
0.050001
0.0499971
0.0500104
0.0500307
0.0500022
)
;

boundaryField
{
    inlet
    {
        type            calculated;
        value           uniform 1;
    }
    outlet
    {
        type            calculated;
        value           uniform 0.0500022;
    }
    yzfaces
    {
        type            empty;
    }
}


// ************************************************************************* //
