/*--------------------------------*- C++ -*----------------------------------*\
| =========                 |                                                 |
| \\      /  F ield         | foam-extend: Open Source CFD                    |
|  \\    /   O peration     | Version:     5.0                                |
|   \\  /    A nd           | Web:         http://www.foam-extend.org         |
|    \\/     M anipulation  |                                                 |
\*---------------------------------------------------------------------------*/
FoamFile
{
    version     2.0;
    format      ascii;
    class       volScalarField;
    location    "1";
    object      YH2O;
}
// * * * * * * * * * * * * * * * * * * * * * * * * * * * * * * * * * * * * * //

dimensions      [0 0 0 0 0 0 0];

internalField   nonuniform List<scalar> 
100
(
-0.000747928
0.00179513
-0.000104736
0.0016599
-0.000697054
2.08907e-05
0.000430632
-0.000822286
-0.000514786
-0.00137101
0.00176974
-0.00114736
0.00127974
-0.000509605
-0.00648308
-0.0163294
-0.0306855
-0.0550653
-0.0846449
-0.122365
-0.163004
-0.206912
-0.245714
-0.278114
-0.298996
-0.30623
-0.299306
-0.278424
-0.246223
-0.209377
-0.167405
-0.12997
-0.0937743
-0.0666089
-0.0430603
-0.0282812
-0.0170708
-0.0102025
-0.00524852
-0.00324147
-0.00112806
-0.000430317
-0.000919865
0.000185594
-0.000267214
0.00150041
-0.000541643
0.00135049
3.90289e-05
0.000487918
0.000294885
0.000320045
0.000767583
0.000543225
0.000412183
0.000262629
0.000544536
0.000585918
0.000783886
0.00071765
0.000941988
-0.00022965
0.000133858
0.000383414
0.000269621
0.000298555
-6.46623e-05
0.000958913
-0.000368761
-0.000368018
-3.15463e-05
-0.000340868
0.00113944
-0.000604915
0.00105623
-0.000310274
-3.74421e-05
0.000165085
4.46021e-05
-1.17671e-05
-0.000224118
0.0003844
-0.00062107
-0.000530836
0.000362197
0.000320674
0.000114313
1.96257e-05
0.00112052
-0.000221052
0.000630086
0.000749103
9.92824e-06
0.000456758
-0.000333605
-0.000257105
-0.00161493
0.000102024
-0.000324377
5.59702e-05
)
;

boundaryField
{
    inlet
    {
        type            calculated;
        value           uniform 0;
    }
    outlet
    {
        type            calculated;
        value           uniform 5.59702e-05;
    }
    yzfaces
    {
        type            empty;
    }
}


// ************************************************************************* //
