/*--------------------------------*- C++ -*----------------------------------*\
| =========                 |                                                 |
| \\      /  F ield         | foam-extend: Open Source CFD                    |
|  \\    /   O peration     | Version:     5.0                                |
|   \\  /    A nd           | Web:         http://www.foam-extend.org         |
|    \\/     M anipulation  |                                                 |
\*---------------------------------------------------------------------------*/
FoamFile
{
    version     2.0;
    format      ascii;
    class       surfaceScalarField;
    location    "5";
    object      phi;
}
// * * * * * * * * * * * * * * * * * * * * * * * * * * * * * * * * * * * * * //

dimensions      [0 3 -1 0 0 0 0];

internalField   nonuniform List<scalar> 
99
(
1.22414e-06
1.22774e-06
1.22475e-06
1.2265e-06
1.2269e-06
1.2248e-06
1.22602e-06
1.22612e-06
1.22582e-06
1.22603e-06
1.22683e-06
1.22607e-06
1.22661e-06
1.22643e-06
1.22791e-06
1.22563e-06
1.22675e-06
1.22552e-06
1.22476e-06
1.22514e-06
1.2243e-06
1.22631e-06
1.22556e-06
1.22655e-06
1.22416e-06
1.22984e-06
1.23251e-06
1.20431e-06
1.22272e-06
1.24632e-06
1.2458e-06
1.22966e-06
1.21544e-06
1.23452e-06
1.21232e-06
1.2472e-06
1.21544e-06
1.2372e-06
1.24447e-06
1.25143e-06
1.25209e-06
1.25117e-06
1.24366e-06
1.28187e-06
1.28152e-06
1.27384e-06
1.28944e-06
1.27354e-06
1.27455e-06
1.28874e-06
1.30443e-06
1.27409e-06
1.25124e-06
1.27348e-06
1.26655e-06
1.28829e-06
1.3031e-06
1.31147e-06
1.28844e-06
1.30408e-06
1.28931e-06
1.28942e-06
1.26597e-06
1.28085e-06
1.2961e-06
1.2893e-06
1.29605e-06
1.27415e-06
1.27407e-06
1.26711e-06
1.25945e-06
1.25191e-06
1.27415e-06
1.26551e-06
1.28921e-06
1.25942e-06
1.28855e-06
1.28168e-06
1.25834e-06
1.28875e-06
1.27449e-06
1.2518e-06
1.25165e-06
1.26639e-06
1.27389e-06
1.30405e-06
1.27394e-06
1.30454e-06
1.289e-06
1.27404e-06
1.28895e-06
1.28123e-06
1.26572e-06
1.27375e-06
1.25869e-06
1.27306e-06
1.30429e-06
1.25877e-06
1.25858e-06
)
;

boundaryField
{
    inlet
    {
        type            calculated;
        value           uniform -1.225e-06;
    }
    outlet
    {
        type            calculated;
        value           uniform 1.29565e-06;
    }
    yzfaces
    {
        type            empty;
    }
}


// ************************************************************************* //
