/*--------------------------------*- C++ -*----------------------------------*\
| =========                 |                                                 |
| \\      /  F ield         | foam-extend: Open Source CFD                    |
|  \\    /   O peration     | Version:     5.0                                |
|   \\  /    A nd           | Web:         http://www.foam-extend.org         |
|    \\/     M anipulation  |                                                 |
\*---------------------------------------------------------------------------*/
FoamFile
{
    version     2.0;
    format      ascii;
    class       surfaceScalarField;
    location    "9";
    object      phi;
}
// * * * * * * * * * * * * * * * * * * * * * * * * * * * * * * * * * * * * * //

dimensions      [0 3 -1 0 0 0 0];

internalField   nonuniform List<scalar> 
99
(
1.22592e-06
1.2242e-06
1.22604e-06
1.22488e-06
1.22374e-06
1.22704e-06
1.22383e-06
1.22506e-06
1.22258e-06
1.22428e-06
1.22483e-06
1.22377e-06
1.22411e-06
1.22446e-06
1.22389e-06
1.22448e-06
1.22393e-06
1.22503e-06
1.22518e-06
1.22419e-06
1.22579e-06
1.22295e-06
1.22504e-06
1.22457e-06
1.22224e-06
1.22347e-06
1.22068e-06
1.22594e-06
1.22464e-06
1.22124e-06
1.22591e-06
1.22641e-06
1.22273e-06
1.22368e-06
1.22597e-06
1.22279e-06
1.22433e-06
1.22056e-06
1.22741e-06
1.22289e-06
1.22203e-06
1.2232e-06
1.22285e-06
1.22226e-06
1.22164e-06
1.22723e-06
1.22585e-06
1.22188e-06
1.22309e-06
1.21678e-06
1.25548e-06
1.22335e-06
1.226e-06
1.2655e-06
1.22016e-06
1.22843e-06
1.24674e-06
1.23159e-06
1.23768e-06
1.22294e-06
1.21514e-06
1.20062e-06
1.19946e-06
1.237e-06
1.21475e-06
1.2294e-06
1.24451e-06
1.23694e-06
1.24386e-06
1.25167e-06
1.21409e-06
1.22938e-06
1.23038e-06
1.23723e-06
1.20649e-06
1.22914e-06
1.20754e-06
1.20006e-06
1.18405e-06
1.20674e-06
1.22128e-06
1.21361e-06
1.222e-06
1.20648e-06
1.22887e-06
1.23654e-06
1.25219e-06
1.24465e-06
1.23713e-06
1.23595e-06
1.25152e-06
1.27452e-06
1.25165e-06
1.26682e-06
1.2736e-06
1.27355e-06
1.28144e-06
1.25825e-06
1.2815e-06
)
;

boundaryField
{
    inlet
    {
        type            calculated;
        value           uniform -1.225e-06;
    }
    outlet
    {
        type            calculated;
        value           uniform 1.22352e-06;
    }
    yzfaces
    {
        type            empty;
    }
}


// ************************************************************************* //
