/*--------------------------------*- C++ -*----------------------------------*\
| =========                 |                                                 |
| \\      /  F ield         | foam-extend: Open Source CFD                    |
|  \\    /   O peration     | Version:     5.0                                |
|   \\  /    A nd           | Web:         http://www.foam-extend.org         |
|    \\/     M anipulation  |                                                 |
\*---------------------------------------------------------------------------*/
FoamFile
{
    version     2.0;
    format      ascii;
    class       volScalarField;
    location    "9";
    object      XCO2;
}
// * * * * * * * * * * * * * * * * * * * * * * * * * * * * * * * * * * * * * //

dimensions      [0 0 0 0 0 0 0];

internalField   nonuniform List<scalar> 
100
(
-0.0129458
0.0129707
-0.00905116
0.00675449
-0.00119513
-0.00163051
0.0062926
-0.00649746
0.00924146
-0.00702081
0.00846178
-0.00746731
0.00905533
-0.0116618
0.0130847
-0.0167076
0.0155476
-0.0170467
0.0143118
-0.0141608
0.0120202
-0.0111167
0.00972181
-0.00769979
0.00654629
-0.00308032
0.00160021
-0.000213063
0.00128496
-0.0047215
0.00868255
-0.00880027
0.01229
-0.00745997
-0.00107312
-0.000383307
-0.0251849
0.0173636
-0.0252577
0.0521924
0.0320247
0.138219
0.167386
0.273855
0.374368
0.466192
0.616503
0.713766
0.812173
0.941789
0.905674
1.02323
1.02495
0.908522
1.03303
1.00956
0.913132
0.958363
0.936956
1.00897
0.946383
1.05577
1.02569
0.893469
0.995788
1.05453
1.07473
0.85213
1.13536
0.975516
1.07948
0.88146
1.11768
0.956422
0.891658
1.09856
0.997322
1.04742
1.06927
1.14516
0.899343
1.00322
0.976937
0.993839
0.898344
1.02546
1.01025
0.869128
1.20537
0.9638
1.03837
0.955032
0.926125
1.06781
1.01765
1.05102
1.02625
1.0057
1.20681
0.39965
)
;

boundaryField
{
    inlet
    {
        type            fixedValue;
        value           uniform 0;
    }
    outlet
    {
        type            zeroGradient;
    }
    yzfaces
    {
        type            empty;
    }
}


// ************************************************************************* //
