/*--------------------------------*- C++ -*----------------------------------*\
| =========                 |                                                 |
| \\      /  F ield         | foam-extend: Open Source CFD                    |
|  \\    /   O peration     | Version:     5.0                                |
|   \\  /    A nd           | Web:         http://www.foam-extend.org         |
|    \\/     M anipulation  |                                                 |
\*---------------------------------------------------------------------------*/
FoamFile
{
    version     2.0;
    format      ascii;
    class       volScalarField;
    location    "3";
    object      XH2O;
}
// * * * * * * * * * * * * * * * * * * * * * * * * * * * * * * * * * * * * * //

dimensions      [0 0 0 0 0 0 0];

internalField   nonuniform List<scalar> 
100
(
1.00213
0.987601
1.00497
0.988968
0.999138
0.984977
0.999784
0.98346
0.987041
0.981528
0.962599
0.923933
0.824059
0.665314
0.538462
0.400172
0.30491
0.201774
0.13392
0.074248
0.0353039
0.0126659
0.002742
0.000273119
2.25761e-05
1.72914e-06
2.0289e-08
1.82327e-11
1.3438e-15
8.37556e-21
4.38849e-27
1.92085e-34
7.21655e-43
2.29417e-52
6.22324e-63
1.45282e-74
2.86539e-87
4.85124e-101
6.91889e-116
8.48026e-132
8.67851e-149
7.599e-167
5.53433e-186
3.39989e-206
1.75012e-227
7.55698e-250
2.75691e-273
8.3911e-298
1.97626e-323
0
0
0
0
0
0
0
0
0
0
0
0
0
0
0
0
0
0
0
0
0
0
0
0
0
0
0
0
0
0
0
0
0
0
0
0
0
0
0
0
0
0
0
0
0
0
0
0
0
0
0
)
;

boundaryField
{
    inlet
    {
        type            fixedValue;
        value           uniform 1;
    }
    outlet
    {
        type            zeroGradient;
    }
    yzfaces
    {
        type            empty;
    }
}


// ************************************************************************* //
