/*--------------------------------*- C++ -*----------------------------------*\
| =========                 |                                                 |
| \\      /  F ield         | foam-extend: Open Source CFD                    |
|  \\    /   O peration     | Version:     5.0                                |
|   \\  /    A nd           | Web:         http://www.foam-extend.org         |
|    \\/     M anipulation  |                                                 |
\*---------------------------------------------------------------------------*/
FoamFile
{
    version     2.0;
    format      ascii;
    class       volScalarField;
    location    "3";
    object      YH2O;
}
// * * * * * * * * * * * * * * * * * * * * * * * * * * * * * * * * * * * * * //

dimensions      [0 0 0 0 0 0 0];

internalField   nonuniform List<scalar> 
100
(
0.985218
1.01866
0.985541
1.01879
0.956011
1.02444
0.969496
1.00063
0.983584
0.971072
0.983855
0.912847
0.809264
0.692245
0.484133
0.452965
0.274867
0.199004
0.120545
-0.00311915
0.14291
-0.0312066
0.0596085
-0.0482058
0.00881905
0.0468995
-0.0558933
0.0345156
0.0119697
0.0224855
-0.0105404
0.0297329
0.0128426
0.0445165
-0.000430912
0.0572798
-0.0103385
0.0195594
0.0326784
-0.00650737
-0.00655554
-0.0148521
-0.0113479
0.0491567
-0.025763
0.04462
-0.0593614
0.0289432
-0.0274718
0.0233844
-0.0602131
0.00322156
-0.0150339
-0.00566216
-0.00710446
0.00891092
0.015993
-0.00795443
-0.00703311
0.00103549
0.0382568
-0.0392334
0.0154465
0.0125846
-0.0267706
-0.000244704
-0.0677465
0.00941437
-0.0284243
0.00872487
0.00030528
0.0166953
-0.0145983
-0.0089196
0.0365425
-0.0249548
-0.0181683
0.0323082
-0.068966
0.0455109
-0.0759653
0.064968
0.00166763
0.0305706
-0.0332671
0.0251118
0.0132838
0.00510252
0.0329455
0.0369349
-0.00731149
0.0379259
-0.00953298
0.032357
-0.0312954
0.0316
-0.0249945
0.0151733
-0.0863705
-0.0495146
)
;

boundaryField
{
    inlet
    {
        type            calculated;
        value           uniform 1;
    }
    outlet
    {
        type            calculated;
        value           uniform -0.0495146;
    }
    yzfaces
    {
        type            empty;
    }
}


// ************************************************************************* //
