/*--------------------------------*- C++ -*----------------------------------*\
| =========                 |                                                 |
| \\      /  F ield         | foam-extend: Open Source CFD                    |
|  \\    /   O peration     | Version:     5.0                                |
|   \\  /    A nd           | Web:         http://www.foam-extend.org         |
|    \\/     M anipulation  |                                                 |
\*---------------------------------------------------------------------------*/
FoamFile
{
    version     2.0;
    format      ascii;
    class       volScalarField;
    location    "9";
    object      alpha.gas;
}
// * * * * * * * * * * * * * * * * * * * * * * * * * * * * * * * * * * * * * //

dimensions      [0 0 0 0 0 0 0];

internalField   nonuniform List<scalar> 
100
(
0.0917237
0.0904912
0.0892166
0.0881961
0.0870557
0.0858305
0.0846342
0.083596
0.0825162
0.0814314
0.0803418
0.0793126
0.078279
0.0773048
0.0764297
0.0755569
0.0746068
0.0737228
0.0729559
0.0721023
0.071223
0.0704601
0.0696189
0.0688721
0.0681237
0.0673904
0.0667213
0.065986
0.0653162
0.0646476
0.0640531
0.0633858
0.0628471
0.0622188
0.0616016
0.0610361
0.0604307
0.0598997
0.0593803
0.0588768
0.0583428
0.0578271
0.0573438
0.056906
0.0564181
0.0559594
0.05558
0.0551056
0.0546848
0.0542904
0.0539321
0.0535179
0.0531252
0.0526818
0.0522701
0.0519019
0.0516085
0.0512639
0.0508438
0.0505376
0.0502306
0.0498098
0.0495788
0.0492207
0.0488687
0.0485356
0.0481965
0.0479137
0.0475637
0.0473076
0.0470093
0.0466872
0.046382
0.0461405
0.0458349
0.0455845
0.0453479
0.0450811
0.0448092
0.0445626
0.0442971
0.0440457
0.0437992
0.0435589
0.0433065
0.0430579
0.0428378
0.0426029
0.0423719
0.04214
0.0419376
0.0417093
0.0415136
0.0412882
0.0410797
0.0409225
0.0407172
0.0405204
0.0404008
0.0403191
)
;

boundaryField
{
    inlet
    {
        type            fixedValue;
        value           uniform 0.2;
    }
    outlet
    {
        type            zeroGradient;
    }
    yzfaces
    {
        type            empty;
    }
}


// ************************************************************************* //
