/*--------------------------------*- C++ -*----------------------------------*\
| =========                 |                                                 |
| \\      /  F ield         | foam-extend: Open Source CFD                    |
|  \\    /   O peration     | Version:     5.0                                |
|   \\  /    A nd           | Web:         http://www.foam-extend.org         |
|    \\/     M anipulation  |                                                 |
\*---------------------------------------------------------------------------*/
FoamFile
{
    version     2.0;
    format      ascii;
    class       volVectorField;
    location    "9";
    object      U.gas;
}
// * * * * * * * * * * * * * * * * * * * * * * * * * * * * * * * * * * * * * //

dimensions      [0 1 -1 0 0 0 0];

internalField   nonuniform List<vector> 
100
(
(0.0108807 0 0)
(0.0110115 0 0)
(0.0111816 0 0)
(0.0112993 0 0)
(0.0114337 0 0)
(0.011603 0 0)
(0.0117515 0 0)
(0.0118528 0 0)
(0.0120072 0 0)
(0.0121744 0 0)
(0.0122886 0 0)
(0.0124214 0 0)
(0.0125742 0 0)
(0.0127251 0 0)
(0.0128836 0 0)
(0.0130127 0 0)
(0.013136 0 0)
(0.0132708 0 0)
(0.0133841 0 0)
(0.0134828 0 0)
(0.0136094 0 0)
(0.0137248 0 0)
(0.0138429 0 0)
(0.0139674 0 0)
(0.0141014 0 0)
(0.0142166 0 0)
(0.0143019 0 0)
(0.0144368 0 0)
(0.0145509 0 0)
(0.014645 0 0)
(0.0147396 0 0)
(0.0148683 0 0)
(0.0149645 0 0)
(0.0150732 0 0)
(0.0152068 0 0)
(0.0153171 0 0)
(0.0154211 0 0)
(0.0155177 0 0)
(0.0156163 0 0)
(0.015701 0 0)
(0.0157898 0 0)
(0.0158794 0 0)
(0.0159703 0 0)
(0.0160418 0 0)
(0.0161272 0 0)
(0.0162376 0 0)
(0.016298 0 0)
(0.0163699 0 0)
(0.0164511 0 0)
(0.0165327 0 0)
(0.0165953 0 0)
(0.016681 0 0)
(0.0167572 0 0)
(0.016861 0 0)
(0.0169772 0 0)
(0.0170927 0 0)
(0.0171666 0 0)
(0.0172317 0 0)
(0.0173392 0 0)
(0.0174138 0 0)
(0.0174739 0 0)
(0.0175748 0 0)
(0.0176088 0 0)
(0.0176907 0 0)
(0.0177888 0 0)
(0.0178594 0 0)
(0.0179362 0 0)
(0.0179964 0 0)
(0.0180712 0 0)
(0.0181187 0 0)
(0.0182056 0 0)
(0.0182963 0 0)
(0.0183853 0 0)
(0.0184443 0 0)
(0.0185107 0 0)
(0.0185541 0 0)
(0.018588 0 0)
(0.0186526 0 0)
(0.0187295 0 0)
(0.018788 0 0)
(0.0188506 0 0)
(0.0189131 0 0)
(0.0189843 0 0)
(0.0190448 0 0)
(0.0191026 0 0)
(0.0191612 0 0)
(0.0192011 0 0)
(0.0192503 0 0)
(0.019308 0 0)
(0.0193668 0 0)
(0.0194033 0 0)
(0.0194524 0 0)
(0.0194985 0 0)
(0.0195666 0 0)
(0.0196196 0 0)
(0.0196395 0 0)
(0.0196862 0 0)
(0.019734 0 0)
(0.0197241 0 0)
(0.019704 0 0)
)
;

boundaryField
{
    inlet
    {
        type            fixedValue;
        value           uniform (0.005 0 0);
    }
    outlet
    {
        type            zeroGradient;
    }
    yzfaces
    {
        type            empty;
    }
}


// ************************************************************************* //
