/*--------------------------------*- C++ -*----------------------------------*\
| =========                 |                                                 |
| \\      /  F ield         | foam-extend: Open Source CFD                    |
|  \\    /   O peration     | Version:     5.0                                |
|   \\  /    A nd           | Web:         http://www.foam-extend.org         |
|    \\/     M anipulation  |                                                 |
\*---------------------------------------------------------------------------*/
FoamFile
{
    version     2.0;
    format      ascii;
    class       volVectorField;
    location    "9";
    object      U.water;
}
// * * * * * * * * * * * * * * * * * * * * * * * * * * * * * * * * * * * * * //

dimensions      [0 1 -1 0 0 0 0];

internalField   nonuniform List<vector> 
100
(
(8.01989e-06 0 0)
(1.71991e-05 0 0)
(4.53639e-05 0 0)
(6.62699e-05 0 0)
(5.85478e-05 0 0)
(6.46466e-05 0 0)
(9.12772e-05 0 0)
(0.000110904 0 0)
(0.000117677 0 0)
(0.000128481 0 0)
(0.000143998 0 0)
(0.000159865 0 0)
(0.000175744 0 0)
(0.000200457 0 0)
(0.000220896 0 0)
(0.000225667 0 0)
(0.000236238 0 0)
(0.000263215 0 0)
(0.000276384 0 0)
(0.000277923 0 0)
(0.000297017 0 0)
(0.000312269 0 0)
(0.000325599 0 0)
(0.000345462 0 0)
(0.00035842 0 0)
(0.000376885 0 0)
(0.000388592 0 0)
(0.000400709 0 0)
(0.000418072 0 0)
(0.000435243 0 0)
(0.000447178 0 0)
(0.000464247 0 0)
(0.000479965 0 0)
(0.000485473 0 0)
(0.000504046 0 0)
(0.000518396 0 0)
(0.000533186 0 0)
(0.000552375 0 0)
(0.000566743 0 0)
(0.000577253 0 0)
(0.000588166 0 0)
(0.000604996 0 0)
(0.000622972 0 0)
(0.000633307 0 0)
(0.000643939 0 0)
(0.000665636 0 0)
(0.000675713 0 0)
(0.000683148 0 0)
(0.000701709 0 0)
(0.000718059 0 0)
(0.000727411 0 0)
(0.000736919 0 0)
(0.000746728 0 0)
(0.000758001 0 0)
(0.000778157 0 0)
(0.000801202 0 0)
(0.000815568 0 0)
(0.00081706 0 0)
(0.000832543 0 0)
(0.000855031 0 0)
(0.000858515 0 0)
(0.000875431 0 0)
(0.000891983 0 0)
(0.000895027 0 0)
(0.00091057 0 0)
(0.000923705 0 0)
(0.000940253 0 0)
(0.00095201 0 0)
(0.000965756 0 0)
(0.000982303 0 0)
(0.000989854 0 0)
(0.00100285 0 0)
(0.00102277 0 0)
(0.0010353 0 0)
(0.00104636 0 0)
(0.00106307 0 0)
(0.00107215 0 0)
(0.00108149 0 0)
(0.00109604 0 0)
(0.0011089 0 0)
(0.00112065 0 0)
(0.00113474 0 0)
(0.00114863 0 0)
(0.00116063 0 0)
(0.0011721 0 0)
(0.00118686 0 0)
(0.00119969 0 0)
(0.00121028 0 0)
(0.0012229 0 0)
(0.00123789 0 0)
(0.00124913 0 0)
(0.00126043 0 0)
(0.00127314 0 0)
(0.00128392 0 0)
(0.00130114 0 0)
(0.00131213 0 0)
(0.00131892 0 0)
(0.00133597 0 0)
(0.00135169 0 0)
(0.00136432 0 0)
)
;

boundaryField
{
    inlet
    {
        type            fixedValue;
        value           uniform (0 0 0);
    }
    outlet
    {
        type            zeroGradient;
    }
    yzfaces
    {
        type            empty;
    }
}


// ************************************************************************* //
