/*--------------------------------*- C++ -*----------------------------------*\
| =========                 |                                                 |
| \\      /  F ield         | foam-extend: Open Source CFD                    |
|  \\    /   O peration     | Version:     5.0                                |
|   \\  /    A nd           | Web:         http://www.foam-extend.org         |
|    \\/     M anipulation  |                                                 |
\*---------------------------------------------------------------------------*/
FoamFile
{
    version     2.0;
    format      ascii;
    class       volScalarField;
    location    "9";
    object      YH2O;
}
// * * * * * * * * * * * * * * * * * * * * * * * * * * * * * * * * * * * * * //

dimensions      [0 0 0 0 0 0 0];

internalField   nonuniform List<scalar> 
100
(
-0.00390271
0.002077
0.00488044
-0.000810251
0.00168952
-0.00424778
0.00359536
-0.00143989
-0.00180174
0.00439913
-0.0107902
0.0114802
-0.0126253
0.0149841
-0.010144
0.0174256
-0.0116521
0.0159829
-0.0128297
0.017951
-0.0158235
0.0173517
-0.0147887
0.0148094
-0.00934125
0.00928682
-0.00707729
0.00442209
-0.00319236
0.00261489
-0.00311425
0.00490625
-0.00200018
0.0015434
-0.0023304
0.00142657
0.000798578
0.00121473
-0.000312905
0.0013708
-0.00252168
0.000716062
0.000290632
0.00132129
-0.00196774
0.00177075
0.00039857
0.000697289
0.00114662
-0.000685338
0.00150153
0.0014413
-0.00115676
0.000413859
0.00132647
-0.000857569
0.000556399
0.00165996
0.00314972
0.000940559
0.000715945
-0.00263097
-0.00161297
-0.00245048
-0.00160523
-0.00327291
-0.00110375
-0.00297635
-0.00359566
-0.00135257
-0.00411952
-0.0010634
-0.00379135
-0.00127016
-0.00254646
-0.00162152
-0.000699343
-0.0021228
-0.00186244
-0.00293498
8.08043e-06
-0.000720669
0.00090325
-0.000652644
0.00086799
-0.00195191
0.00164413
-0.00282867
0.00294149
-0.00190694
0.00132365
-0.00111407
0.00173175
-0.00207472
-0.0012918
2.88574e-05
0.000710368
0.000127288
-0.000381574
2.34945e-05
)
;

boundaryField
{
    inlet
    {
        type            calculated;
        value           uniform 0;
    }
    outlet
    {
        type            calculated;
        value           uniform 2.34945e-05;
    }
    yzfaces
    {
        type            empty;
    }
}


// ************************************************************************* //
