/*--------------------------------*- C++ -*----------------------------------*\
| =========                 |                                                 |
| \\      /  F ield         | foam-extend: Open Source CFD                    |
|  \\    /   O peration     | Version:     5.0                                |
|   \\  /    A nd           | Web:         http://www.foam-extend.org         |
|    \\/     M anipulation  |                                                 |
\*---------------------------------------------------------------------------*/
FoamFile
{
    version     2.0;
    format      ascii;
    class       volScalarField;
    location    "6000";
    object      alpha.gas;
}
// * * * * * * * * * * * * * * * * * * * * * * * * * * * * * * * * * * * * * //

dimensions      [0 0 0 0 0 0 0];

internalField   nonuniform List<scalar> 
1000
(
0
0
0
0
0
0
0
0
0
0
0
0
0
0
0
0
0
0
0
0
0
0
0
0
0
0
0
0
0
0
0
0
0
0
0
0
0
0
0
0
0
0
0
0
0
0
0
0
0
0
0
0
3.55215e-28
1.42238e-14
4.83998e-09
2.46297e-05
0.00240732
0.0239714
0.0607975
0.0853815
0.0905489
0.092802
0.0970811
0.105224
0.0738399
0.120361
0.107945
0.104902
0.0854905
0.0813853
0.115595
0.0840361
0.113617
0.127064
0.135183
0.143604
0.121887
0.142445
0.119768
0.134444
0.143204
0.125825
0.100904
0.150016
0.138808
0.141152
0.143573
0.146076
0.148655
0.166443
0.169725
0.188907
0.160968
0.131385
0.175462
0.162339
0.209504
0.179655
0.193686
0.171532
0
0
0
0
0
0
0
0
0
0
0
0
0
0
0
0
0
0
0
0
0
0
0
0
0
0
0
0
0
0
0
0
0
0
0
0
0
0
0
0
0
0
0
0
0
0
0
0
0
0
0
0
1.50017e-11
3.3705e-06
0.0014008
0.0170023
0.0419638
0.0767359
0.104713
0.120343
0.0849069
0.0977997
0.1277
0.119303
0.0867494
0.140452
0.0893344
0.138452
0.103899
0.135957
0.0939862
0.107561
0.095923
0.109753
0.0978719
0.158069
0.160349
0.149104
0.151101
0.146179
0.133987
0.107067
0.15858
0.116963
0.125617
0.142011
0.181716
0.184735
0.133127
0.150737
0.152983
0.122642
0.157351
0.193608
0.163279
0.131315
0.177819
0.136314
0.222034
0.153377
0
0
0
0
0
0
0
0
0
0
0
0
0
0
0
0
0
0
0
0
0
0
0
0
0
0
0
0
0
0
0
0
0
0
0
0
0
0
0
0
0
0
0
0
0
0
0
0
0
0
0
0
1.13666e-11
2.69311e-06
0.00113538
0.0188789
0.0556535
0.0724753
0.0874049
0.109128
0.0838576
0.113057
0.0997036
0.101664
0.103406
0.139986
0.130746
0.108666
0.0977672
0.104961
0.137287
0.132827
0.134516
0.155648
0.124975
0.119716
0.127699
0.108733
0.144038
0.104152
0.140077
0.113382
0.171664
0.159634
0.125008
0.15601
0.127956
0.174962
0.18532
0.172657
0.151426
0.185844
0.180904
0.175773
0.204521
0.209042
0.142728
0.145195
0.221866
0.162634
0
0
0
0
0
0
0
0
0
0
0
0
0
0
0
0
0
0
0
0
0
0
0
0
0
0
0
0
0
0
0
0
0
0
0
0
0
0
0
0
0
0
0
0
0
0
0
0
0
0
0
0
5.33713e-11
5.02612e-06
0.00122228
0.021896
0.0630056
0.0781318
0.0840381
0.0797281
0.108771
0.129229
0.122507
0.131181
0.0990195
0.0885869
0.119475
0.0969534
0.140885
0.130568
0.113394
0.152856
0.109824
0.156598
0.138943
0.120558
0.142137
0.123339
0.152378
0.126313
0.148993
0.150915
0.160163
0.169783
0.112391
0.151392
0.12278
0.131947
0.149303
0.1275
0.145204
0.139079
0.157598
0.202254
0.180744
0.166806
0.143226
0.17314
0.149301
0.171854
0
0
0
0
0
0
0
0
0
0
0
0
0
0
0
0
0
0
0
0
0
0
0
0
0
0
0
0
0
0
0
0
0
0
0
0
0
0
0
0
0
0
0
0
0
0
0
0
0
0
0
0
2.62351e-10
8.78297e-06
0.00150007
0.0218204
0.0598366
0.0766987
0.0782608
0.0981018
0.0929119
0.0959308
0.125758
0.0842794
0.114048
0.127718
0.118198
0.0959765
0.121316
0.147559
0.137381
0.132949
0.102609
0.103602
0.137269
0.0992638
0.100132
0.161595
0.109236
0.165368
0.167698
0.141735
0.12908
0.173956
0.132382
0.163612
0.15837
0.183503
0.155438
0.157648
0.167948
0.178735
0.190124
0.185408
0.146137
0.131104
0.150873
0.198903
0.167254
0.171711
0
0
0
0
0
0
0
0
0
0
0
0
0
0
0
0
0
0
0
0
0
0
0
0
0
0
0
0
0
0
0
0
0
0
0
0
0
0
0
0
0
0
0
0
0
0
0
0
0
0
0
4.5679e-15
5.45914e-08
0.000175657
0.00792999
0.0333518
0.0613732
0.0794676
0.0695334
0.111577
0.0820296
0.115809
0.103232
0.133309
0.10815
0.127302
0.135443
0.0898353
0.145199
0.135229
0.0997257
0.144749
0.146752
0.122884
0.12425
0.138843
0.133832
0.128605
0.13002
0.159114
0.16125
0.149234
0.136727
0.12376
0.132418
0.119037
0.135275
0.174849
0.185236
0.180467
0.143572
0.137406
0.180113
0.149981
0.203018
0.138288
0.140399
0.214031
0.219872
0.217568
0
0
0
0
0
0
0
0
0
0
0
0
0
0
0
0
0
0
0
0
0
0
0
0
0
0
0
0
0
0
0
0
0
0
0
0
0
0
0
0
0
0
0
0
0
0
0
0
0
0
0
3.97206e-10
1.09155e-05
0.00260094
0.0218616
0.0625371
0.0750647
0.112656
0.102522
0.101567
0.0824962
0.100735
0.108273
0.127498
0.0884707
0.107344
0.0966235
0.122073
0.111284
0.125041
0.145541
0.0962158
0.116473
0.137295
0.158789
0.134126
0.12209
0.164447
0.145877
0.126571
0.113718
0.121999
0.1595
0.124922
0.155955
0.158029
0.160197
0.131512
0.164373
0.150952
0.161155
0.12276
0.140848
0.193288
0.137206
0.130593
0.212065
0.163258
0.203965
0.153184
0
0
0
0
0
0
0
0
0
0
0
0
0
0
0
0
0
0
0
0
0
0
0
0
0
0
0
0
0
0
0
0
0
0
0
0
0
0
0
0
0
0
0
0
0
0
0
0
0
0
0
4.02164e-09
5.30744e-05
0.00456402
0.0302104
0.0653985
0.10203
0.0734703
0.0766852
0.110816
0.109304
0.0952792
0.136904
0.0933318
0.14179
0.108274
0.0913439
0.122981
0.137005
0.119924
0.127666
0.1227
0.137091
0.15855
0.107147
0.155411
0.102679
0.117355
0.104542
0.119482
0.170311
0.107937
0.174197
0.169343
0.126934
0.173565
0.153171
0.131931
0.117758
0.118979
0.152306
0.186964
0.165501
0.151405
0.145242
0.130167
0.202433
0.198262
0.166417
0.208387
0
0
0
0
0
0
0
0
0
0
0
0
0
0
0
0
0
0
0
0
0
0
0
0
0
0
0
0
0
0
0
0
0
0
0
0
0
0
0
0
0
0
0
0
0
0
0
0
0
0
8.002e-14
1.99341e-07
0.000321461
0.0132209
0.0379488
0.0660006
0.105361
0.0746519
0.114013
0.130348
0.123959
0.103989
0.1116
0.113375
0.12106
0.10435
0.0992832
0.144095
0.120715
0.141289
0.130048
0.131467
0.132875
0.140995
0.128982
0.130255
0.159246
0.119155
0.1202
0.149789
0.165913
0.138806
0.147648
0.126934
0.150775
0.152557
0.162147
0.164295
0.11898
0.120173
0.153777
0.164093
0.141598
0.14351
0.205479
0.192463
0.134131
0.136315
0.184916
0.199421
0
0
0
0
0
0
0
0
0
0
0
0
0
0
0
0
0
0
0
0
0
0
0
0
0
0
0
0
0
0
0
0
0
0
0
0
0
0
0
0
0
0
0
0
0
0
0
0
0
1.10663e-16
8.97571e-09
6.6576e-05
0.00612176
0.0321022
0.0713414
0.0970884
0.0942665
0.0999152
0.132902
0.138444
0.0930717
0.1132
0.146864
0.156106
0.119065
0.126938
0.128216
0.149859
0.117104
0.145694
0.147105
0.14848
0.149836
0.115193
0.108614
0.167372
0.169056
0.148488
0.157185
0.173688
0.114462
0.153448
0.16254
0.132863
0.133827
0.174482
0.120315
0.137265
0.170973
0.156497
0.166497
0.126399
0.144497
0.189028
0.130998
0.194214
0.179961
0.174254
0.177887
0.153674
)
;

boundaryField
{
    inlet
    {
        type            fixedValue;
        value           uniform 0.2;
    }
    outlet
    {
        type            zeroGradient;
    }
    walls
    {
        type            zeroGradient;
    }
}


// ************************************************************************* //
