/*--------------------------------*- C++ -*----------------------------------*\
| =========                 |                                                 |
| \\      /  F ield         | foam-extend: Open Source CFD                    |
|  \\    /   O peration     | Version:     5.0                                |
|   \\  /    A nd           | Web:         http://www.foam-extend.org         |
|    \\/     M anipulation  |                                                 |
\*---------------------------------------------------------------------------*/
FoamFile
{
    version     2.0;
    format      ascii;
    class       volScalarField;
    location    "6000";
    object      alpha.oil;
}
// * * * * * * * * * * * * * * * * * * * * * * * * * * * * * * * * * * * * * //

dimensions      [0 0 0 0 0 0 0];

internalField   nonuniform List<scalar> 
1000
(
0.18
0.16
0.22
0.19
0.23
0.17
0.16
0.15
0.18
0.2
0.2
0.16
0.19
0.18
0.18
0.22
0.24
0.22
0.15
0.23
0.17
0.24
0.19
0.18
0.15
0.19
0.23
0.18
0.22
0.23
0.21
0.2
0.22
0.22
0.19
0.24
0.24
0.23
0.16
0.19
0.18
0.17
0.19
0.21
0.2
0.19
0.21
0.15
0.16
0.22
0.23
0.18
0.23
0.2
0.15
0.179975
0.157593
0.206029
0.179203
0.154618
0.129451
0.117198
0.112919
0.114776
0.0761601
0.119639
0.102055
0.0950982
0.0745095
0.0686147
0.0944054
0.0659639
0.0863829
0.0929357
0.0948169
0.0963963
0.0781134
0.087555
0.0702315
0.0755561
0.076796
0.0641751
0.0490957
0.0699838
0.0611919
0.0588483
0.0564274
0.053924
0.0513445
0.0535572
0.050275
0.0510928
0.0390321
0.0286155
0.0345383
0.0276614
0.0304964
0.0203454
0.0163141
0.00846804
0.21
0.21
0.19
0.16
0.15
0.18
0.15
0.17
0.24
0.18
0.22
0.2
0.2
0.17
0.18
0.22
0.17
0.18
0.19
0.24
0.23
0.18
0.19
0.15
0.2
0.17
0.21
0.21
0.23
0.21
0.24
0.19
0.16
0.21
0.19
0.23
0.2
0.2
0.2
0.19
0.16
0.18
0.24
0.21
0.22
0.17
0.21
0.16
0.2
0.19
0.2
0.17
0.17
0.239997
0.218599
0.142998
0.108036
0.123264
0.125287
0.119657
0.0750931
0.0822003
0.1023
0.0906966
0.0632506
0.0995482
0.0606656
0.0915481
0.0661012
0.0840428
0.0560138
0.0624387
0.054077
0.0602472
0.0521281
0.0819305
0.079651
0.0708962
0.0688992
0.0638214
0.0560129
0.042933
0.0614202
0.0430375
0.0443834
0.047989
0.0582837
0.0552651
0.0368727
0.039263
0.0370173
0.0273584
0.0326491
0.0363919
0.0267214
0.0186846
0.0221813
0.0136863
0.0179662
0.00662274
0.23
0.17
0.15
0.19
0.17
0.22
0.21
0.23
0.17
0.15
0.21
0.16
0.2
0.2
0.17
0.15
0.24
0.24
0.22
0.19
0.16
0.23
0.19
0.2
0.22
0.16
0.19
0.21
0.19
0.23
0.16
0.21
0.22
0.2
0.19
0.16
0.2
0.16
0.17
0.15
0.16
0.22
0.19
0.16
0.2
0.2
0.23
0.2
0.16
0.24
0.15
0.16
0.22
0.219997
0.198865
0.181121
0.144347
0.107525
0.102595
0.110872
0.0761424
0.0969429
0.0802964
0.0783358
0.0765937
0.100014
0.0892537
0.0713337
0.0622328
0.0650393
0.0827129
0.0771729
0.0754844
0.0843518
0.0650251
0.0602838
0.062301
0.0512672
0.0659615
0.0458479
0.0599228
0.0466183
0.0683363
0.0603656
0.044992
0.0539897
0.0420442
0.0550376
0.0546795
0.0473435
0.0385744
0.0441564
0.0390956
0.0342271
0.0354787
0.030958
0.017272
0.0148052
0.0181342
0.00736569
0.21
0.19
0.17
0.23
0.22
0.16
0.23
0.19
0.19
0.18
0.15
0.22
0.21
0.24
0.2
0.18
0.15
0.15
0.22
0.19
0.16
0.2
0.17
0.22
0.19
0.18
0.21
0.16
0.21
0.24
0.22
0.24
0.15
0.24
0.16
0.18
0.24
0.2
0.24
0.16
0.23
0.24
0.19
0.18
0.2
0.15
0.23
0.2
0.18
0.16
0.17
0.19
0.17
0.189995
0.158778
0.208104
0.156994
0.111868
0.0959619
0.0802719
0.101229
0.110771
0.0974928
0.0988188
0.0709805
0.0614131
0.0805254
0.0630466
0.0891155
0.0794323
0.0666063
0.0871442
0.0601765
0.0834017
0.071057
0.0594423
0.0678634
0.0566615
0.0676224
0.0536874
0.061007
0.059085
0.0598373
0.0602171
0.0376091
0.0486082
0.0372201
0.0380526
0.0406967
0.0325
0.034796
0.030921
0.0324019
0.0377462
0.0292556
0.0231941
0.0167744
0.0168595
0.0106992
0.00814639
0.15
0.24
0.17
0.23
0.24
0.23
0.19
0.23
0.15
0.22
0.17
0.17
0.24
0.24
0.21
0.22
0.19
0.15
0.16
0.17
0.24
0.24
0.2
0.22
0.24
0.2
0.23
0.24
0.16
0.23
0.2
0.22
0.22
0.16
0.17
0.21
0.21
0.22
0.21
0.24
0.15
0.2
0.2
0.2
0.21
0.16
0.19
0.23
0.22
0.21
0.2
0.16
0.23
0.149991
0.1485
0.18818
0.150163
0.113301
0.0917392
0.101898
0.0870881
0.0840692
0.104242
0.0657206
0.0859515
0.0922823
0.0818016
0.0640235
0.0786838
0.0924414
0.0826189
0.0770507
0.0573909
0.056398
0.0727313
0.0507362
0.0498676
0.0784046
0.0507642
0.0746318
0.0723023
0.0582647
0.0509202
0.0660436
0.0476181
0.0563881
0.0516305
0.0564972
0.0445616
0.0423516
0.0420516
0.041265
0.0398764
0.0345916
0.0238632
0.0188956
0.0191271
0.0210967
0.0127463
0.00828905
0.2
0.22
0.2
0.19
0.17
0.17
0.21
0.24
0.18
0.16
0.22
0.2
0.18
0.17
0.17
0.16
0.18
0.16
0.16
0.19
0.23
0.16
0.21
0.15
0.22
0.15
0.2
0.17
0.24
0.16
0.22
0.19
0.21
0.23
0.15
0.18
0.18
0.22
0.23
0.15
0.2
0.18
0.16
0.22
0.19
0.2
0.15
0.15
0.15
0.15
0.18
0.16
0.22
0.209824
0.18207
0.126648
0.118627
0.110532
0.0804666
0.118423
0.0779704
0.104191
0.0867681
0.106691
0.0818496
0.0926984
0.0945566
0.0601647
0.0948009
0.0847705
0.0602743
0.0852506
0.0832482
0.0671156
0.0657504
0.0711569
0.0661676
0.061395
0.0599796
0.0708862
0.0687497
0.0607665
0.0532729
0.0462401
0.0475821
0.0409634
0.0447253
0.0551514
0.0547638
0.0495332
0.0364282
0.0325937
0.0398868
0.0300187
0.0369823
0.0217121
0.0196012
0.0259688
0.0201279
0.0124317
0.18
0.15
0.16
0.22
0.19
0.21
0.23
0.23
0.15
0.19
0.17
0.24
0.21
0.22
0.23
0.23
0.18
0.24
0.17
0.22
0.17
0.2
0.19
0.2
0.17
0.15
0.2
0.18
0.15
0.2
0.22
0.16
0.2
0.18
0.19
0.23
0.24
0.22
0.15
0.19
0.15
0.18
0.21
0.24
0.17
0.22
0.2
0.24
0.2
0.23
0.16
0.15
0.149989
0.227399
0.138138
0.147463
0.104935
0.127344
0.0974778
0.088433
0.0675038
0.0792647
0.0817271
0.0925018
0.0615293
0.0726555
0.0633765
0.0779274
0.0687163
0.0749593
0.0844588
0.0537842
0.0635274
0.072705
0.0812114
0.0658735
0.0579102
0.0755529
0.0641234
0.0534295
0.0462822
0.0480014
0.0604997
0.0450782
0.0540447
0.0519713
0.0498033
0.0384883
0.045627
0.0390478
0.038845
0.0272405
0.0291523
0.0367117
0.0227939
0.0194069
0.0279349
0.0167424
0.0160346
0.0068163
0.19
0.15
0.19
0.17
0.21
0.19
0.16
0.24
0.23
0.22
0.23
0.18
0.18
0.22
0.23
0.21
0.18
0.19
0.16
0.16
0.21
0.21
0.24
0.24
0.15
0.15
0.15
0.17
0.2
0.18
0.18
0.21
0.22
0.16
0.15
0.17
0.23
0.23
0.23
0.17
0.2
0.16
0.24
0.18
0.23
0.24
0.24
0.17
0.24
0.15
0.21
0.18
0.229947
0.185436
0.14979
0.134602
0.13797
0.0765297
0.0733148
0.0991839
0.0906964
0.0747208
0.103096
0.0666682
0.0982097
0.0717256
0.0586561
0.0770195
0.0829953
0.0700758
0.0723341
0.0673005
0.072909
0.0814498
0.0528526
0.0745888
0.0473213
0.052645
0.0454581
0.0505185
0.069689
0.0420634
0.0658029
0.0606569
0.0430657
0.0564348
0.0468289
0.0380691
0.0322422
0.0310208
0.0376936
0.0430362
0.0344991
0.028595
0.0247579
0.0198328
0.0275674
0.0217377
0.0135834
0.0116126
0.18
0.2
0.21
0.15
0.22
0.22
0.17
0.19
0.17
0.15
0.23
0.18
0.17
0.18
0.18
0.17
0.2
0.24
0.2
0.22
0.15
0.2
0.19
0.22
0.22
0.18
0.17
0.19
0.24
0.24
0.17
0.15
0.17
0.17
0.15
0.18
0.22
0.18
0.24
0.2
0.24
0.18
0.2
0.18
0.16
0.2
0.17
0.23
0.15
0.22
0.15
0.19
0.199679
0.226779
0.112051
0.113999
0.134639
0.0753481
0.105987
0.109652
0.0960411
0.0760113
0.0783999
0.0766252
0.0789404
0.0656502
0.0607168
0.0859046
0.0692849
0.0787107
0.0699522
0.068533
0.0671253
0.0690054
0.0610176
0.0597454
0.0707542
0.0508445
0.0497997
0.0602107
0.0640865
0.0511944
0.0523518
0.043066
0.0492253
0.0474429
0.0478528
0.0457048
0.0310203
0.029827
0.0362227
0.0359069
0.0284018
0.0264903
0.0345209
0.0275374
0.0158687
0.0136851
0.0150841
0.0105791
0.24
0.17
0.18
0.23
0.15
0.17
0.2
0.24
0.2
0.23
0.16
0.22
0.21
0.19
0.21
0.24
0.23
0.16
0.15
0.19
0.17
0.21
0.23
0.2
0.19
0.23
0.15
0.22
0.22
0.23
0.17
0.16
0.19
0.2
0.24
0.21
0.16
0.21
0.2
0.19
0.2
0.22
0.23
0.16
0.15
0.24
0.19
0.24
0.23
0.23
0.18
0.189933
0.213878
0.127898
0.128659
0.112912
0.0857335
0.0800848
0.0970977
0.0915562
0.0569283
0.0667998
0.0831364
0.0838939
0.0609348
0.0630623
0.061784
0.0701411
0.0528958
0.0643064
0.0628953
0.0615202
0.0601641
0.0448075
0.0413855
0.0626278
0.0609445
0.0515116
0.0528151
0.056312
0.0355384
0.0465518
0.0474604
0.0371371
0.036173
0.0455177
0.029685
0.032735
0.0390272
0.0335028
0.0335034
0.0236009
0.0255032
0.0309717
0.0190022
0.0257858
0.0200389
0.0157459
0.0121129
0.00632594
)
;

boundaryField
{
    inlet
    {
        type            fixedValue;
        value           uniform 0;
    }
    outlet
    {
        type            zeroGradient;
    }
    walls
    {
        type            zeroGradient;
    }
}


// ************************************************************************* //
