/*--------------------------------*- C++ -*----------------------------------*\
| =========                 |                                                 |
| \\      /  F ield         | foam-extend: Open Source CFD                    |
|  \\    /   O peration     | Version:     5.0                                |
|   \\  /    A nd           | Web:         http://www.foam-extend.org         |
|    \\/     M anipulation  |                                                 |
\*---------------------------------------------------------------------------*/
FoamFile
{
    version     2.0;
    format      ascii;
    class       volScalarField;
    location    "6000";
    object      p;
}
// * * * * * * * * * * * * * * * * * * * * * * * * * * * * * * * * * * * * * //

dimensions      [1 -1 -2 0 0 0 0];

internalField   nonuniform List<scalar> 
1000
(
0.101067
0.103151
0.105208
0.107248
0.109277
0.111297
0.113312
0.115323
0.117331
0.119337
0.121341
0.123345
0.125347
0.127349
0.12935
0.131351
0.133351
0.135352
0.137352
0.139353
0.141353
0.143353
0.145353
0.147353
0.149353
0.151353
0.153353
0.155353
0.157353
0.159353
0.161353
0.163354
0.165354
0.167354
0.169354
0.171354
0.173355
0.175355
0.177356
0.179357
0.181358
0.18336
0.185362
0.187366
0.18937
0.191376
0.193384
0.195395
0.197409
0.199428
0.201453
0.203486
0.205532
0.2076
0.209723
0.211983
0.214397
0.217069
0.219974
0.222764
0.225397
0.227931
0.230393
0.232795
0.235146
0.237463
0.239736
0.241973
0.244175
0.246348
0.248491
0.250602
0.252687
0.254742
0.256766
0.258759
0.26072
0.26265
0.264547
0.266415
0.268252
0.270056
0.27183
0.273576
0.275289
0.27697
0.278618
0.28023
0.281807
0.283349
0.284853
0.28632
0.287744
0.289128
0.290474
0.291774
0.293034
0.294239
0.295396
0.296488
0.101038
0.1031
0.105147
0.107181
0.109206
0.111224
0.113238
0.115248
0.117255
0.11926
0.121264
0.123267
0.125269
0.127271
0.129272
0.131272
0.133273
0.135274
0.137274
0.139274
0.141274
0.143274
0.145274
0.147275
0.149275
0.151275
0.153275
0.155275
0.157275
0.159275
0.161275
0.163275
0.165275
0.167275
0.169275
0.171276
0.173276
0.175277
0.177277
0.179278
0.181279
0.183281
0.185283
0.187286
0.18929
0.191295
0.193303
0.195313
0.197326
0.199343
0.201366
0.203395
0.20543
0.207468
0.209509
0.211837
0.214544
0.217335
0.220121
0.222817
0.225406
0.227928
0.230385
0.232782
0.235132
0.237448
0.239718
0.241957
0.24416
0.246334
0.248475
0.250587
0.252669
0.254722
0.256745
0.25874
0.260702
0.262632
0.264531
0.266398
0.268235
0.270039
0.271817
0.27356
0.275272
0.276954
0.278604
0.280218
0.281792
0.283333
0.284837
0.286303
0.287732
0.289121
0.290464
0.291762
0.293019
0.294225
0.295389
0.296478
0.101023
0.103064
0.105097
0.107123
0.109142
0.111157
0.113167
0.115175
0.117181
0.119185
0.121188
0.12319
0.125192
0.127193
0.129194
0.131194
0.133195
0.135195
0.137196
0.139196
0.141196
0.143196
0.145196
0.147196
0.149196
0.151196
0.153196
0.155196
0.157196
0.159196
0.161196
0.163196
0.165197
0.167197
0.169197
0.171197
0.173197
0.175198
0.177198
0.179199
0.1812
0.183201
0.185203
0.187205
0.189209
0.191213
0.193219
0.195227
0.197238
0.199253
0.201273
0.203297
0.205327
0.207357
0.209398
0.211758
0.214612
0.217455
0.220206
0.222865
0.225433
0.227941
0.230385
0.232777
0.235125
0.237437
0.239708
0.241943
0.244146
0.24632
0.248464
0.250575
0.252656
0.254709
0.256729
0.25872
0.260681
0.262611
0.264512
0.266379
0.268219
0.270025
0.271804
0.273547
0.275256
0.276937
0.278584
0.2802
0.281778
0.283318
0.284822
0.286291
0.28772
0.289109
0.290455
0.291755
0.293005
0.294214
0.295378
0.29647
0.101013
0.103036
0.105056
0.107071
0.109083
0.111092
0.113099
0.115104
0.117108
0.11911
0.121112
0.123114
0.125115
0.127116
0.129116
0.131117
0.133117
0.135117
0.137117
0.139117
0.141118
0.143118
0.145118
0.147118
0.149118
0.151118
0.153118
0.155118
0.157118
0.159118
0.161118
0.163118
0.165118
0.167118
0.169118
0.171118
0.173118
0.175119
0.177119
0.179119
0.18112
0.183121
0.185122
0.187124
0.189126
0.191129
0.193133
0.195139
0.197147
0.199159
0.201174
0.203195
0.205223
0.207258
0.209327
0.211741
0.214669
0.217533
0.220265
0.222901
0.225463
0.227959
0.230393
0.232778
0.235119
0.237424
0.239695
0.24193
0.244137
0.246309
0.24845
0.250562
0.25264
0.254693
0.256713
0.258702
0.260663
0.262594
0.264496
0.266365
0.268205
0.270012
0.271789
0.273533
0.275241
0.276922
0.278568
0.280182
0.28176
0.2833
0.284805
0.286274
0.287705
0.289097
0.290441
0.291739
0.292994
0.294206
0.295364
0.296463
0.101004
0.103012
0.105018
0.107023
0.109027
0.111031
0.113033
0.115035
0.117036
0.119037
0.121037
0.123038
0.125038
0.127039
0.129039
0.131039
0.133039
0.135039
0.137039
0.139039
0.141039
0.143039
0.145039
0.147039
0.149039
0.151039
0.153039
0.155039
0.157039
0.159039
0.161039
0.163039
0.165039
0.167039
0.169039
0.171039
0.17304
0.17504
0.17704
0.17904
0.18104
0.18304
0.185041
0.187042
0.189042
0.191044
0.193046
0.195049
0.197053
0.19906
0.20107
0.203087
0.205112
0.207155
0.209274
0.211784
0.214739
0.217602
0.220318
0.222941
0.225482
0.227966
0.230396
0.232773
0.235114
0.237417
0.239684
0.241916
0.244123
0.246297
0.248437
0.250546
0.252623
0.254673
0.256694
0.258682
0.260643
0.262577
0.264476
0.26635
0.268189
0.269995
0.27177
0.273515
0.275224
0.276905
0.278553
0.280168
0.281744
0.283285
0.28479
0.286259
0.287691
0.28908
0.290423
0.291722
0.292983
0.2942
0.295359
0.296459
0.100996
0.102988
0.104982
0.106977
0.108973
0.110969
0.112967
0.114965
0.116964
0.118963
0.120963
0.122962
0.124962
0.126962
0.128961
0.130961
0.132961
0.134961
0.136961
0.138961
0.140961
0.142961
0.144961
0.146961
0.148961
0.150961
0.152961
0.154961
0.156961
0.158961
0.160961
0.162961
0.164961
0.166961
0.168961
0.170961
0.172961
0.174961
0.17696
0.17896
0.18096
0.18296
0.18496
0.186959
0.188959
0.190958
0.192957
0.194957
0.196957
0.198958
0.200961
0.202969
0.204984
0.207019
0.209234
0.211964
0.214877
0.217686
0.220368
0.222974
0.225496
0.227971
0.230392
0.23277
0.235104
0.237405
0.23967
0.241902
0.244108
0.24628
0.248418
0.250529
0.252608
0.254657
0.256677
0.258666
0.260626
0.262558
0.264458
0.266331
0.26817
0.269977
0.271752
0.273494
0.275206
0.276885
0.278533
0.280149
0.281727
0.283268
0.284771
0.286238
0.287672
0.289061
0.290408
0.291708
0.292971
0.294191
0.295355
0.296457
0.100987
0.102964
0.104944
0.106929
0.108917
0.110908
0.112901
0.114896
0.116892
0.11889
0.120888
0.122886
0.124885
0.126884
0.128884
0.130883
0.132883
0.134883
0.136883
0.138883
0.140883
0.142883
0.144882
0.146882
0.148882
0.150882
0.152882
0.154882
0.156882
0.158882
0.160882
0.162882
0.164882
0.166882
0.168882
0.170882
0.172882
0.174881
0.176881
0.178881
0.18088
0.182879
0.184878
0.186877
0.188875
0.190872
0.192869
0.194864
0.196859
0.198853
0.200847
0.202843
0.20484
0.206873
0.209321
0.212178
0.215034
0.217786
0.220428
0.223001
0.225509
0.227971
0.230387
0.23276
0.23509
0.237388
0.239652
0.241887
0.24409
0.246262
0.248403
0.250509
0.25259
0.254641
0.256661
0.25865
0.260608
0.262541
0.26444
0.26631
0.268149
0.269957
0.271735
0.273478
0.275191
0.276871
0.278517
0.280127
0.281706
0.283247
0.284753
0.28622
0.287652
0.289045
0.290391
0.291695
0.292964
0.294179
0.295343
0.296441
0.100977
0.102936
0.104903
0.106877
0.108858
0.110844
0.112833
0.114825
0.116819
0.118815
0.120812
0.12281
0.124808
0.126807
0.128806
0.130806
0.132805
0.134805
0.136805
0.138804
0.140804
0.142804
0.144804
0.146804
0.148804
0.150804
0.152804
0.154804
0.156804
0.158804
0.160804
0.162804
0.164804
0.166803
0.168803
0.170803
0.172803
0.174802
0.176802
0.178801
0.1808
0.182799
0.184797
0.186795
0.188792
0.190787
0.192781
0.194773
0.196762
0.198748
0.200732
0.202715
0.204705
0.206801
0.209417
0.212326
0.215158
0.217848
0.220471
0.223032
0.225527
0.227975
0.230386
0.232751
0.235082
0.237374
0.239636
0.241872
0.244075
0.246246
0.248385
0.250494
0.252574
0.254624
0.256641
0.258633
0.26059
0.26252
0.26442
0.266291
0.268133
0.269939
0.271719
0.273463
0.275173
0.276855
0.278499
0.280108
0.281683
0.283225
0.284734
0.286206
0.287637
0.289028
0.290377
0.291684
0.292951
0.294166
0.295328
0.296434
0.100962
0.1029
0.104854
0.106819
0.108794
0.110776
0.112762
0.114752
0.116745
0.11874
0.120736
0.122733
0.124731
0.12673
0.128728
0.130728
0.132727
0.134727
0.136726
0.138726
0.140726
0.142726
0.144726
0.146726
0.148725
0.150725
0.152725
0.154725
0.156725
0.158725
0.160725
0.162725
0.164725
0.166725
0.168725
0.170724
0.172724
0.174724
0.176723
0.178722
0.180721
0.182719
0.184717
0.186714
0.18871
0.190704
0.192696
0.194684
0.196668
0.198647
0.200617
0.20258
0.20456
0.206775
0.209566
0.212448
0.215238
0.217901
0.220514
0.223057
0.225537
0.227976
0.23038
0.232744
0.23507
0.237361
0.239623
0.241859
0.244059
0.246231
0.24837
0.250478
0.252557
0.254605
0.256624
0.258616
0.260577
0.262505
0.264405
0.266277
0.268117
0.269924
0.271701
0.273443
0.275157
0.276837
0.278482
0.280092
0.281666
0.283208
0.284718
0.286189
0.28762
0.289014
0.290369
0.291677
0.292936
0.29415
0.295315
0.29642
0.100933
0.102849
0.104792
0.106752
0.108723
0.110703
0.112688
0.114677
0.116669
0.118663
0.120659
0.122655
0.124653
0.126651
0.12865
0.130649
0.132649
0.134648
0.136648
0.138648
0.140647
0.142647
0.144647
0.146647
0.148647
0.150647
0.152647
0.154647
0.156647
0.158647
0.160647
0.162647
0.164647
0.166646
0.168646
0.170646
0.172646
0.174645
0.176644
0.178643
0.180642
0.18264
0.184638
0.186634
0.188629
0.190623
0.192613
0.1946
0.196581
0.198552
0.200509
0.202436
0.204402
0.206872
0.209711
0.212541
0.215272
0.217929
0.220534
0.223065
0.225534
0.227973
0.230379
0.232741
0.23506
0.237351
0.239613
0.241847
0.244045
0.246218
0.248357
0.250466
0.252543
0.254588
0.256607
0.258604
0.260566
0.262494
0.264395
0.266265
0.268101
0.26991
0.271687
0.273429
0.275142
0.276823
0.278465
0.280077
0.281656
0.283198
0.284706
0.286173
0.287607
0.289005
0.290355
0.291668
0.29293
0.294143
0.295305
0.296402
)
;

boundaryField
{
    inlet
    {
        type            fluxPressure;
        gradient        nonuniform List<scalar> 10(0.01 0.01 0.01 0.01 0.01 0.01 0.01 0.01 0.01 0.01);
        value           nonuniform List<scalar> 10(0.296988 0.296978 0.29697 0.296963 0.296959 0.296957 0.296941 0.296934 0.29692 0.296902);
    }
    outlet
    {
        type            fixedValue;
        value           uniform 0.1;
    }
    walls
    {
        type            fluxPressure;
        gradient        uniform 0;
        value           nonuniform List<scalar> 
2200
(
0.101067
0.103151
0.105208
0.107248
0.109277
0.111297
0.113312
0.115323
0.117331
0.119337
0.121341
0.123345
0.125347
0.127349
0.12935
0.131351
0.133351
0.135352
0.137352
0.139353
0.141353
0.143353
0.145353
0.147353
0.149353
0.151353
0.153353
0.155353
0.157353
0.159353
0.161353
0.163354
0.165354
0.167354
0.169354
0.171354
0.173355
0.175355
0.177356
0.179357
0.181358
0.18336
0.185362
0.187366
0.18937
0.191376
0.193384
0.195395
0.197409
0.199428
0.201453
0.203486
0.205532
0.2076
0.209723
0.211983
0.214397
0.217069
0.219974
0.222764
0.225397
0.227931
0.230393
0.232795
0.235146
0.237463
0.239736
0.241973
0.244175
0.246348
0.248491
0.250602
0.252687
0.254742
0.256766
0.258759
0.26072
0.26265
0.264547
0.266415
0.268252
0.270056
0.27183
0.273576
0.275289
0.27697
0.278618
0.28023
0.281807
0.283349
0.284853
0.28632
0.287744
0.289128
0.290474
0.291774
0.293034
0.294239
0.295396
0.296488
0.101038
0.1031
0.105147
0.107181
0.109206
0.111224
0.113238
0.115248
0.117255
0.11926
0.121264
0.123267
0.125269
0.127271
0.129272
0.131272
0.133273
0.135274
0.137274
0.139274
0.141274
0.143274
0.145274
0.147275
0.149275
0.151275
0.153275
0.155275
0.157275
0.159275
0.161275
0.163275
0.165275
0.167275
0.169275
0.171276
0.173276
0.175277
0.177277
0.179278
0.181279
0.183281
0.185283
0.187286
0.18929
0.191295
0.193303
0.195313
0.197326
0.199343
0.201366
0.203395
0.20543
0.207468
0.209509
0.211837
0.214544
0.217335
0.220121
0.222817
0.225406
0.227928
0.230385
0.232782
0.235132
0.237448
0.239718
0.241957
0.24416
0.246334
0.248475
0.250587
0.252669
0.254722
0.256745
0.25874
0.260702
0.262632
0.264531
0.266398
0.268235
0.270039
0.271817
0.27356
0.275272
0.276954
0.278604
0.280218
0.281792
0.283333
0.284837
0.286303
0.287732
0.289121
0.290464
0.291762
0.293019
0.294225
0.295389
0.296478
0.101023
0.103064
0.105097
0.107123
0.109142
0.111157
0.113167
0.115175
0.117181
0.119185
0.121188
0.12319
0.125192
0.127193
0.129194
0.131194
0.133195
0.135195
0.137196
0.139196
0.141196
0.143196
0.145196
0.147196
0.149196
0.151196
0.153196
0.155196
0.157196
0.159196
0.161196
0.163196
0.165197
0.167197
0.169197
0.171197
0.173197
0.175198
0.177198
0.179199
0.1812
0.183201
0.185203
0.187205
0.189209
0.191213
0.193219
0.195227
0.197238
0.199253
0.201273
0.203297
0.205327
0.207357
0.209398
0.211758
0.214612
0.217455
0.220206
0.222865
0.225433
0.227941
0.230385
0.232777
0.235125
0.237437
0.239708
0.241943
0.244146
0.24632
0.248464
0.250575
0.252656
0.254709
0.256729
0.25872
0.260681
0.262611
0.264512
0.266379
0.268219
0.270025
0.271804
0.273547
0.275256
0.276937
0.278584
0.2802
0.281778
0.283318
0.284822
0.286291
0.28772
0.289109
0.290455
0.291755
0.293005
0.294214
0.295378
0.29647
0.101013
0.103036
0.105056
0.107071
0.109083
0.111092
0.113099
0.115104
0.117108
0.11911
0.121112
0.123114
0.125115
0.127116
0.129116
0.131117
0.133117
0.135117
0.137117
0.139117
0.141118
0.143118
0.145118
0.147118
0.149118
0.151118
0.153118
0.155118
0.157118
0.159118
0.161118
0.163118
0.165118
0.167118
0.169118
0.171118
0.173118
0.175119
0.177119
0.179119
0.18112
0.183121
0.185122
0.187124
0.189126
0.191129
0.193133
0.195139
0.197147
0.199159
0.201174
0.203195
0.205223
0.207258
0.209327
0.211741
0.214669
0.217533
0.220265
0.222901
0.225463
0.227959
0.230393
0.232778
0.235119
0.237424
0.239695
0.24193
0.244137
0.246309
0.24845
0.250562
0.25264
0.254693
0.256713
0.258702
0.260663
0.262594
0.264496
0.266365
0.268205
0.270012
0.271789
0.273533
0.275241
0.276922
0.278568
0.280182
0.28176
0.2833
0.284805
0.286274
0.287705
0.289097
0.290441
0.291739
0.292994
0.294206
0.295364
0.296463
0.101004
0.103012
0.105018
0.107023
0.109027
0.111031
0.113033
0.115035
0.117036
0.119037
0.121037
0.123038
0.125038
0.127039
0.129039
0.131039
0.133039
0.135039
0.137039
0.139039
0.141039
0.143039
0.145039
0.147039
0.149039
0.151039
0.153039
0.155039
0.157039
0.159039
0.161039
0.163039
0.165039
0.167039
0.169039
0.171039
0.17304
0.17504
0.17704
0.17904
0.18104
0.18304
0.185041
0.187042
0.189042
0.191044
0.193046
0.195049
0.197053
0.19906
0.20107
0.203087
0.205112
0.207155
0.209274
0.211784
0.214739
0.217602
0.220318
0.222941
0.225482
0.227966
0.230396
0.232773
0.235114
0.237417
0.239684
0.241916
0.244123
0.246297
0.248437
0.250546
0.252623
0.254673
0.256694
0.258682
0.260643
0.262577
0.264476
0.26635
0.268189
0.269995
0.27177
0.273515
0.275224
0.276905
0.278553
0.280168
0.281744
0.283285
0.28479
0.286259
0.287691
0.28908
0.290423
0.291722
0.292983
0.2942
0.295359
0.296459
0.100996
0.102988
0.104982
0.106977
0.108973
0.110969
0.112967
0.114965
0.116964
0.118963
0.120963
0.122962
0.124962
0.126962
0.128961
0.130961
0.132961
0.134961
0.136961
0.138961
0.140961
0.142961
0.144961
0.146961
0.148961
0.150961
0.152961
0.154961
0.156961
0.158961
0.160961
0.162961
0.164961
0.166961
0.168961
0.170961
0.172961
0.174961
0.17696
0.17896
0.18096
0.18296
0.18496
0.186959
0.188959
0.190958
0.192957
0.194957
0.196957
0.198958
0.200961
0.202969
0.204984
0.207019
0.209234
0.211964
0.214877
0.217686
0.220368
0.222974
0.225496
0.227971
0.230392
0.23277
0.235104
0.237405
0.23967
0.241902
0.244108
0.24628
0.248418
0.250529
0.252608
0.254657
0.256677
0.258666
0.260626
0.262558
0.264458
0.266331
0.26817
0.269977
0.271752
0.273494
0.275206
0.276885
0.278533
0.280149
0.281727
0.283268
0.284771
0.286238
0.287672
0.289061
0.290408
0.291708
0.292971
0.294191
0.295355
0.296457
0.100987
0.102964
0.104944
0.106929
0.108917
0.110908
0.112901
0.114896
0.116892
0.11889
0.120888
0.122886
0.124885
0.126884
0.128884
0.130883
0.132883
0.134883
0.136883
0.138883
0.140883
0.142883
0.144882
0.146882
0.148882
0.150882
0.152882
0.154882
0.156882
0.158882
0.160882
0.162882
0.164882
0.166882
0.168882
0.170882
0.172882
0.174881
0.176881
0.178881
0.18088
0.182879
0.184878
0.186877
0.188875
0.190872
0.192869
0.194864
0.196859
0.198853
0.200847
0.202843
0.20484
0.206873
0.209321
0.212178
0.215034
0.217786
0.220428
0.223001
0.225509
0.227971
0.230387
0.23276
0.23509
0.237388
0.239652
0.241887
0.24409
0.246262
0.248403
0.250509
0.25259
0.254641
0.256661
0.25865
0.260608
0.262541
0.26444
0.26631
0.268149
0.269957
0.271735
0.273478
0.275191
0.276871
0.278517
0.280127
0.281706
0.283247
0.284753
0.28622
0.287652
0.289045
0.290391
0.291695
0.292964
0.294179
0.295343
0.296441
0.100977
0.102936
0.104903
0.106877
0.108858
0.110844
0.112833
0.114825
0.116819
0.118815
0.120812
0.12281
0.124808
0.126807
0.128806
0.130806
0.132805
0.134805
0.136805
0.138804
0.140804
0.142804
0.144804
0.146804
0.148804
0.150804
0.152804
0.154804
0.156804
0.158804
0.160804
0.162804
0.164804
0.166803
0.168803
0.170803
0.172803
0.174802
0.176802
0.178801
0.1808
0.182799
0.184797
0.186795
0.188792
0.190787
0.192781
0.194773
0.196762
0.198748
0.200732
0.202715
0.204705
0.206801
0.209417
0.212326
0.215158
0.217848
0.220471
0.223032
0.225527
0.227975
0.230386
0.232751
0.235082
0.237374
0.239636
0.241872
0.244075
0.246246
0.248385
0.250494
0.252574
0.254624
0.256641
0.258633
0.26059
0.26252
0.26442
0.266291
0.268133
0.269939
0.271719
0.273463
0.275173
0.276855
0.278499
0.280108
0.281683
0.283225
0.284734
0.286206
0.287637
0.289028
0.290377
0.291684
0.292951
0.294166
0.295328
0.296434
0.100962
0.1029
0.104854
0.106819
0.108794
0.110776
0.112762
0.114752
0.116745
0.11874
0.120736
0.122733
0.124731
0.12673
0.128728
0.130728
0.132727
0.134727
0.136726
0.138726
0.140726
0.142726
0.144726
0.146726
0.148725
0.150725
0.152725
0.154725
0.156725
0.158725
0.160725
0.162725
0.164725
0.166725
0.168725
0.170724
0.172724
0.174724
0.176723
0.178722
0.180721
0.182719
0.184717
0.186714
0.18871
0.190704
0.192696
0.194684
0.196668
0.198647
0.200617
0.20258
0.20456
0.206775
0.209566
0.212448
0.215238
0.217901
0.220514
0.223057
0.225537
0.227976
0.23038
0.232744
0.23507
0.237361
0.239623
0.241859
0.244059
0.246231
0.24837
0.250478
0.252557
0.254605
0.256624
0.258616
0.260577
0.262505
0.264405
0.266277
0.268117
0.269924
0.271701
0.273443
0.275157
0.276837
0.278482
0.280092
0.281666
0.283208
0.284718
0.286189
0.28762
0.289014
0.290369
0.291677
0.292936
0.29415
0.295315
0.29642
0.100933
0.102849
0.104792
0.106752
0.108723
0.110703
0.112688
0.114677
0.116669
0.118663
0.120659
0.122655
0.124653
0.126651
0.12865
0.130649
0.132649
0.134648
0.136648
0.138648
0.140647
0.142647
0.144647
0.146647
0.148647
0.150647
0.152647
0.154647
0.156647
0.158647
0.160647
0.162647
0.164647
0.166646
0.168646
0.170646
0.172646
0.174645
0.176644
0.178643
0.180642
0.18264
0.184638
0.186634
0.188629
0.190623
0.192613
0.1946
0.196581
0.198552
0.200509
0.202436
0.204402
0.206872
0.209711
0.212541
0.215272
0.217929
0.220534
0.223065
0.225534
0.227973
0.230379
0.232741
0.23506
0.237351
0.239613
0.241847
0.244045
0.246218
0.248357
0.250466
0.252543
0.254588
0.256607
0.258604
0.260566
0.262494
0.264395
0.266265
0.268101
0.26991
0.271687
0.273429
0.275142
0.276823
0.278465
0.280077
0.281656
0.283198
0.284706
0.286173
0.287607
0.289005
0.290355
0.291668
0.29293
0.294143
0.295305
0.296402
0.101067
0.103151
0.105208
0.107248
0.109277
0.111297
0.113312
0.115323
0.117331
0.119337
0.121341
0.123345
0.125347
0.127349
0.12935
0.131351
0.133351
0.135352
0.137352
0.139353
0.141353
0.143353
0.145353
0.147353
0.149353
0.151353
0.153353
0.155353
0.157353
0.159353
0.161353
0.163354
0.165354
0.167354
0.169354
0.171354
0.173355
0.175355
0.177356
0.179357
0.181358
0.18336
0.185362
0.187366
0.18937
0.191376
0.193384
0.195395
0.197409
0.199428
0.201453
0.203486
0.205532
0.2076
0.209723
0.211983
0.214397
0.217069
0.219974
0.222764
0.225397
0.227931
0.230393
0.232795
0.235146
0.237463
0.239736
0.241973
0.244175
0.246348
0.248491
0.250602
0.252687
0.254742
0.256766
0.258759
0.26072
0.26265
0.264547
0.266415
0.268252
0.270056
0.27183
0.273576
0.275289
0.27697
0.278618
0.28023
0.281807
0.283349
0.284853
0.28632
0.287744
0.289128
0.290474
0.291774
0.293034
0.294239
0.295396
0.296488
0.101038
0.1031
0.105147
0.107181
0.109206
0.111224
0.113238
0.115248
0.117255
0.11926
0.121264
0.123267
0.125269
0.127271
0.129272
0.131272
0.133273
0.135274
0.137274
0.139274
0.141274
0.143274
0.145274
0.147275
0.149275
0.151275
0.153275
0.155275
0.157275
0.159275
0.161275
0.163275
0.165275
0.167275
0.169275
0.171276
0.173276
0.175277
0.177277
0.179278
0.181279
0.183281
0.185283
0.187286
0.18929
0.191295
0.193303
0.195313
0.197326
0.199343
0.201366
0.203395
0.20543
0.207468
0.209509
0.211837
0.214544
0.217335
0.220121
0.222817
0.225406
0.227928
0.230385
0.232782
0.235132
0.237448
0.239718
0.241957
0.24416
0.246334
0.248475
0.250587
0.252669
0.254722
0.256745
0.25874
0.260702
0.262632
0.264531
0.266398
0.268235
0.270039
0.271817
0.27356
0.275272
0.276954
0.278604
0.280218
0.281792
0.283333
0.284837
0.286303
0.287732
0.289121
0.290464
0.291762
0.293019
0.294225
0.295389
0.296478
0.101023
0.103064
0.105097
0.107123
0.109142
0.111157
0.113167
0.115175
0.117181
0.119185
0.121188
0.12319
0.125192
0.127193
0.129194
0.131194
0.133195
0.135195
0.137196
0.139196
0.141196
0.143196
0.145196
0.147196
0.149196
0.151196
0.153196
0.155196
0.157196
0.159196
0.161196
0.163196
0.165197
0.167197
0.169197
0.171197
0.173197
0.175198
0.177198
0.179199
0.1812
0.183201
0.185203
0.187205
0.189209
0.191213
0.193219
0.195227
0.197238
0.199253
0.201273
0.203297
0.205327
0.207357
0.209398
0.211758
0.214612
0.217455
0.220206
0.222865
0.225433
0.227941
0.230385
0.232777
0.235125
0.237437
0.239708
0.241943
0.244146
0.24632
0.248464
0.250575
0.252656
0.254709
0.256729
0.25872
0.260681
0.262611
0.264512
0.266379
0.268219
0.270025
0.271804
0.273547
0.275256
0.276937
0.278584
0.2802
0.281778
0.283318
0.284822
0.286291
0.28772
0.289109
0.290455
0.291755
0.293005
0.294214
0.295378
0.29647
0.101013
0.103036
0.105056
0.107071
0.109083
0.111092
0.113099
0.115104
0.117108
0.11911
0.121112
0.123114
0.125115
0.127116
0.129116
0.131117
0.133117
0.135117
0.137117
0.139117
0.141118
0.143118
0.145118
0.147118
0.149118
0.151118
0.153118
0.155118
0.157118
0.159118
0.161118
0.163118
0.165118
0.167118
0.169118
0.171118
0.173118
0.175119
0.177119
0.179119
0.18112
0.183121
0.185122
0.187124
0.189126
0.191129
0.193133
0.195139
0.197147
0.199159
0.201174
0.203195
0.205223
0.207258
0.209327
0.211741
0.214669
0.217533
0.220265
0.222901
0.225463
0.227959
0.230393
0.232778
0.235119
0.237424
0.239695
0.24193
0.244137
0.246309
0.24845
0.250562
0.25264
0.254693
0.256713
0.258702
0.260663
0.262594
0.264496
0.266365
0.268205
0.270012
0.271789
0.273533
0.275241
0.276922
0.278568
0.280182
0.28176
0.2833
0.284805
0.286274
0.287705
0.289097
0.290441
0.291739
0.292994
0.294206
0.295364
0.296463
0.101004
0.103012
0.105018
0.107023
0.109027
0.111031
0.113033
0.115035
0.117036
0.119037
0.121037
0.123038
0.125038
0.127039
0.129039
0.131039
0.133039
0.135039
0.137039
0.139039
0.141039
0.143039
0.145039
0.147039
0.149039
0.151039
0.153039
0.155039
0.157039
0.159039
0.161039
0.163039
0.165039
0.167039
0.169039
0.171039
0.17304
0.17504
0.17704
0.17904
0.18104
0.18304
0.185041
0.187042
0.189042
0.191044
0.193046
0.195049
0.197053
0.19906
0.20107
0.203087
0.205112
0.207155
0.209274
0.211784
0.214739
0.217602
0.220318
0.222941
0.225482
0.227966
0.230396
0.232773
0.235114
0.237417
0.239684
0.241916
0.244123
0.246297
0.248437
0.250546
0.252623
0.254673
0.256694
0.258682
0.260643
0.262577
0.264476
0.26635
0.268189
0.269995
0.27177
0.273515
0.275224
0.276905
0.278553
0.280168
0.281744
0.283285
0.28479
0.286259
0.287691
0.28908
0.290423
0.291722
0.292983
0.2942
0.295359
0.296459
0.100996
0.102988
0.104982
0.106977
0.108973
0.110969
0.112967
0.114965
0.116964
0.118963
0.120963
0.122962
0.124962
0.126962
0.128961
0.130961
0.132961
0.134961
0.136961
0.138961
0.140961
0.142961
0.144961
0.146961
0.148961
0.150961
0.152961
0.154961
0.156961
0.158961
0.160961
0.162961
0.164961
0.166961
0.168961
0.170961
0.172961
0.174961
0.17696
0.17896
0.18096
0.18296
0.18496
0.186959
0.188959
0.190958
0.192957
0.194957
0.196957
0.198958
0.200961
0.202969
0.204984
0.207019
0.209234
0.211964
0.214877
0.217686
0.220368
0.222974
0.225496
0.227971
0.230392
0.23277
0.235104
0.237405
0.23967
0.241902
0.244108
0.24628
0.248418
0.250529
0.252608
0.254657
0.256677
0.258666
0.260626
0.262558
0.264458
0.266331
0.26817
0.269977
0.271752
0.273494
0.275206
0.276885
0.278533
0.280149
0.281727
0.283268
0.284771
0.286238
0.287672
0.289061
0.290408
0.291708
0.292971
0.294191
0.295355
0.296457
0.100987
0.102964
0.104944
0.106929
0.108917
0.110908
0.112901
0.114896
0.116892
0.11889
0.120888
0.122886
0.124885
0.126884
0.128884
0.130883
0.132883
0.134883
0.136883
0.138883
0.140883
0.142883
0.144882
0.146882
0.148882
0.150882
0.152882
0.154882
0.156882
0.158882
0.160882
0.162882
0.164882
0.166882
0.168882
0.170882
0.172882
0.174881
0.176881
0.178881
0.18088
0.182879
0.184878
0.186877
0.188875
0.190872
0.192869
0.194864
0.196859
0.198853
0.200847
0.202843
0.20484
0.206873
0.209321
0.212178
0.215034
0.217786
0.220428
0.223001
0.225509
0.227971
0.230387
0.23276
0.23509
0.237388
0.239652
0.241887
0.24409
0.246262
0.248403
0.250509
0.25259
0.254641
0.256661
0.25865
0.260608
0.262541
0.26444
0.26631
0.268149
0.269957
0.271735
0.273478
0.275191
0.276871
0.278517
0.280127
0.281706
0.283247
0.284753
0.28622
0.287652
0.289045
0.290391
0.291695
0.292964
0.294179
0.295343
0.296441
0.100977
0.102936
0.104903
0.106877
0.108858
0.110844
0.112833
0.114825
0.116819
0.118815
0.120812
0.12281
0.124808
0.126807
0.128806
0.130806
0.132805
0.134805
0.136805
0.138804
0.140804
0.142804
0.144804
0.146804
0.148804
0.150804
0.152804
0.154804
0.156804
0.158804
0.160804
0.162804
0.164804
0.166803
0.168803
0.170803
0.172803
0.174802
0.176802
0.178801
0.1808
0.182799
0.184797
0.186795
0.188792
0.190787
0.192781
0.194773
0.196762
0.198748
0.200732
0.202715
0.204705
0.206801
0.209417
0.212326
0.215158
0.217848
0.220471
0.223032
0.225527
0.227975
0.230386
0.232751
0.235082
0.237374
0.239636
0.241872
0.244075
0.246246
0.248385
0.250494
0.252574
0.254624
0.256641
0.258633
0.26059
0.26252
0.26442
0.266291
0.268133
0.269939
0.271719
0.273463
0.275173
0.276855
0.278499
0.280108
0.281683
0.283225
0.284734
0.286206
0.287637
0.289028
0.290377
0.291684
0.292951
0.294166
0.295328
0.296434
0.100962
0.1029
0.104854
0.106819
0.108794
0.110776
0.112762
0.114752
0.116745
0.11874
0.120736
0.122733
0.124731
0.12673
0.128728
0.130728
0.132727
0.134727
0.136726
0.138726
0.140726
0.142726
0.144726
0.146726
0.148725
0.150725
0.152725
0.154725
0.156725
0.158725
0.160725
0.162725
0.164725
0.166725
0.168725
0.170724
0.172724
0.174724
0.176723
0.178722
0.180721
0.182719
0.184717
0.186714
0.18871
0.190704
0.192696
0.194684
0.196668
0.198647
0.200617
0.20258
0.20456
0.206775
0.209566
0.212448
0.215238
0.217901
0.220514
0.223057
0.225537
0.227976
0.23038
0.232744
0.23507
0.237361
0.239623
0.241859
0.244059
0.246231
0.24837
0.250478
0.252557
0.254605
0.256624
0.258616
0.260577
0.262505
0.264405
0.266277
0.268117
0.269924
0.271701
0.273443
0.275157
0.276837
0.278482
0.280092
0.281666
0.283208
0.284718
0.286189
0.28762
0.289014
0.290369
0.291677
0.292936
0.29415
0.295315
0.29642
0.100933
0.102849
0.104792
0.106752
0.108723
0.110703
0.112688
0.114677
0.116669
0.118663
0.120659
0.122655
0.124653
0.126651
0.12865
0.130649
0.132649
0.134648
0.136648
0.138648
0.140647
0.142647
0.144647
0.146647
0.148647
0.150647
0.152647
0.154647
0.156647
0.158647
0.160647
0.162647
0.164647
0.166646
0.168646
0.170646
0.172646
0.174645
0.176644
0.178643
0.180642
0.18264
0.184638
0.186634
0.188629
0.190623
0.192613
0.1946
0.196581
0.198552
0.200509
0.202436
0.204402
0.206872
0.209711
0.212541
0.215272
0.217929
0.220534
0.223065
0.225534
0.227973
0.230379
0.232741
0.23506
0.237351
0.239613
0.241847
0.244045
0.246218
0.248357
0.250466
0.252543
0.254588
0.256607
0.258604
0.260566
0.262494
0.264395
0.266265
0.268101
0.26991
0.271687
0.273429
0.275142
0.276823
0.278465
0.280077
0.281656
0.283198
0.284706
0.286173
0.287607
0.289005
0.290355
0.291668
0.29293
0.294143
0.295305
0.296402
0.101067
0.103151
0.105208
0.107248
0.109277
0.111297
0.113312
0.115323
0.117331
0.119337
0.121341
0.123345
0.125347
0.127349
0.12935
0.131351
0.133351
0.135352
0.137352
0.139353
0.141353
0.143353
0.145353
0.147353
0.149353
0.151353
0.153353
0.155353
0.157353
0.159353
0.161353
0.163354
0.165354
0.167354
0.169354
0.171354
0.173355
0.175355
0.177356
0.179357
0.181358
0.18336
0.185362
0.187366
0.18937
0.191376
0.193384
0.195395
0.197409
0.199428
0.201453
0.203486
0.205532
0.2076
0.209723
0.211983
0.214397
0.217069
0.219974
0.222764
0.225397
0.227931
0.230393
0.232795
0.235146
0.237463
0.239736
0.241973
0.244175
0.246348
0.248491
0.250602
0.252687
0.254742
0.256766
0.258759
0.26072
0.26265
0.264547
0.266415
0.268252
0.270056
0.27183
0.273576
0.275289
0.27697
0.278618
0.28023
0.281807
0.283349
0.284853
0.28632
0.287744
0.289128
0.290474
0.291774
0.293034
0.294239
0.295396
0.296488
0.100933
0.102849
0.104792
0.106752
0.108723
0.110703
0.112688
0.114677
0.116669
0.118663
0.120659
0.122655
0.124653
0.126651
0.12865
0.130649
0.132649
0.134648
0.136648
0.138648
0.140647
0.142647
0.144647
0.146647
0.148647
0.150647
0.152647
0.154647
0.156647
0.158647
0.160647
0.162647
0.164647
0.166646
0.168646
0.170646
0.172646
0.174645
0.176644
0.178643
0.180642
0.18264
0.184638
0.186634
0.188629
0.190623
0.192613
0.1946
0.196581
0.198552
0.200509
0.202436
0.204402
0.206872
0.209711
0.212541
0.215272
0.217929
0.220534
0.223065
0.225534
0.227973
0.230379
0.232741
0.23506
0.237351
0.239613
0.241847
0.244045
0.246218
0.248357
0.250466
0.252543
0.254588
0.256607
0.258604
0.260566
0.262494
0.264395
0.266265
0.268101
0.26991
0.271687
0.273429
0.275142
0.276823
0.278465
0.280077
0.281656
0.283198
0.284706
0.286173
0.287607
0.289005
0.290355
0.291668
0.29293
0.294143
0.295305
0.296402
)
;
    }
}

