/*--------------------------------*- C++ -*----------------------------------*\
| =========                 |                                                 |
| \\      /  F ield         | foam-extend: Open Source CFD                    |
|  \\    /   O peration     | Version:     5.0                                |
|   \\  /    A nd           | Web:         http://www.foam-extend.org         |
|    \\/     M anipulation  |                                                 |
\*---------------------------------------------------------------------------*/
FoamFile
{
    version     2.0;
    format      ascii;
    class       surfaceScalarField;
    location    "6000";
    object      phi;
}
// * * * * * * * * * * * * * * * * * * * * * * * * * * * * * * * * * * * * * //

dimensions      [0 3 -1 0 0 0 0];

internalField   nonuniform List<scalar> 
1890
(
-1.04211e-05
-2.47692e-07
-1.02847e-05
-1.36398e-07
-1.01998e-05
-8.48613e-08
-1.0143e-05
-5.67892e-08
-1.01034e-05
-3.95807e-08
-1.00752e-05
-2.82062e-08
-1.00549e-05
-2.03457e-08
-1.00401e-05
-1.47739e-08
-1.00293e-05
-1.07676e-08
-1.00215e-05
-7.86388e-09
-1.00157e-05
-5.7498e-09
-1.00115e-05
-4.20674e-09
-1.00084e-05
-3.07882e-09
-1.00062e-05
-2.25368e-09
-1.00045e-05
-1.64972e-09
-1.00033e-05
-1.20748e-09
-1.00024e-05
-8.83533e-10
-1.00018e-05
-6.4611e-10
-1.00013e-05
-4.71946e-10
-1.0001e-05
-3.43983e-10
-1.00007e-05
-2.4969e-10
-1.00005e-05
-1.79837e-10
-1.00004e-05
-1.27586e-10
-1.00003e-05
-8.78207e-11
-1.00003e-05
-5.66501e-11
-1.00002e-05
-3.10237e-11
-1.00002e-05
-8.43416e-12
-1.00002e-05
1.33276e-11
-1.00003e-05
3.63881e-11
-1.00003e-05
6.29978e-11
-1.00004e-05
9.57495e-11
-1.00006e-05
1.37827e-10
-1.00008e-05
1.9331e-10
-1.0001e-05
2.67556e-10
-1.00014e-05
3.67701e-10
-1.00019e-05
5.03306e-10
-1.00026e-05
6.87206e-10
-1.00035e-05
9.36606e-10
-1.00048e-05
1.27448e-09
-1.00065e-05
1.73133e-09
-1.00089e-05
2.34725e-09
-1.00121e-05
3.17441e-09
-1.00163e-05
4.27955e-09
-1.00221e-05
5.74653e-09
-1.00298e-05
7.67828e-09
-1.004e-05
1.01987e-08
-1.00534e-05
1.34568e-08
-1.00711e-05
1.76447e-08
-1.00941e-05
2.30686e-08
-1.01245e-05
3.04035e-08
-1.01661e-05
4.15648e-08
-1.02288e-05
6.26864e-08
-1.03434e-05
1.14568e-07
-1.06141e-05
2.70726e-07
-1.12965e-05
6.82448e-07
-1.17142e-05
4.17653e-07
-1.10116e-05
-7.02544e-07
-9.96247e-06
-1.04917e-06
-9.32019e-06
-6.42282e-07
-9.02004e-06
-3.00151e-07
-8.89402e-06
-1.26016e-07
-8.8188e-06
-7.52198e-08
-8.76366e-06
-5.51418e-08
-8.72941e-06
-3.42447e-08
-8.70566e-06
-2.37563e-08
-8.6885e-06
-1.7161e-08
-8.68398e-06
-4.51174e-09
-8.67524e-06
-8.74249e-09
-8.66966e-06
-5.57677e-09
-8.66103e-06
-8.62909e-09
-8.66684e-06
5.80286e-09
-8.67106e-06
4.22369e-09
-8.68783e-06
1.6766e-08
-8.71194e-06
2.41146e-08
-8.74633e-06
3.43844e-08
-8.77594e-06
2.96168e-08
-8.80251e-06
2.65698e-08
-8.83578e-06
3.3272e-08
-8.86497e-06
2.91898e-08
-8.90038e-06
3.54031e-08
-8.93999e-06
3.96183e-08
-8.97959e-06
3.95951e-08
-9.00309e-06
2.35021e-08
-9.04906e-06
4.597e-08
-9.10033e-06
5.12716e-08
-9.14873e-06
4.83963e-08
-9.18967e-06
4.09382e-08
-9.22868e-06
3.90088e-08
-9.28313e-06
5.44586e-08
-9.34655e-06
6.34182e-08
-9.41749e-06
7.09386e-08
-9.49915e-06
8.16626e-08
-9.55402e-06
5.48694e-08
-9.579e-06
2.49771e-08
-9.62792e-06
4.89236e-08
-9.69731e-06
6.93925e-08
-9.78879e-06
9.14743e-08
-9.8809e-06
9.21132e-08
-9.92688e-06
4.59809e-08
7.31191e-08
-1.03098e-05
-3.17264e-07
-1.02331e-05
-2.13038e-07
-1.01717e-05
-1.46258e-07
-1.01258e-05
-1.02715e-07
-1.0092e-05
-7.33272e-08
-1.00674e-05
-5.28985e-08
-1.00493e-05
-3.84026e-08
-1.00361e-05
-2.79821e-08
-1.00264e-05
-2.04326e-08
-1.00194e-05
-1.49381e-08
-1.00142e-05
-1.09285e-08
-1.00104e-05
-7.99825e-09
-1.00076e-05
-5.85482e-09
-1.00056e-05
-4.28612e-09
-1.00041e-05
-3.13765e-09
-1.0003e-05
-2.2966e-09
-1.00022e-05
-1.68048e-09
-1.00016e-05
-1.2289e-09
-1.00012e-05
-8.97626e-10
-1.00009e-05
-6.54231e-10
-1.00007e-05
-4.7488e-10
-1.00005e-05
-3.42015e-10
-1.00004e-05
-2.42629e-10
-1.00003e-05
-1.66994e-10
-1.00002e-05
-1.07707e-10
-1.00002e-05
-5.8965e-11
-1.00002e-05
-1.5999e-11
-1.00002e-05
2.53938e-11
-1.00003e-05
6.92595e-11
-1.00003e-05
1.19881e-10
-1.00004e-05
1.82196e-10
-1.00005e-05
2.62267e-10
-1.00007e-05
3.67869e-10
-1.00009e-05
5.09222e-10
-1.00013e-05
6.99946e-10
-1.00017e-05
9.58317e-10
-1.00023e-05
1.30891e-09
-1.00032e-05
1.78473e-09
-1.00044e-05
2.43e-09
-1.00059e-05
3.30358e-09
-1.00081e-05
4.4833e-09
-1.0011e-05
6.07086e-09
-1.00149e-05
8.19735e-09
-1.00202e-05
1.10284e-08
-1.00272e-05
1.4768e-08
-1.00367e-05
1.96598e-08
-1.00492e-05
2.59839e-08
-1.00656e-05
3.40535e-08
-1.00868e-05
4.42264e-08
-1.01134e-05
5.69807e-08
-1.0145e-05
7.31696e-08
-1.01769e-05
9.46127e-08
-1.01869e-05
1.24585e-07
-1.00786e-05
1.62388e-07
-9.55883e-06
1.62689e-07
-9.14146e-06
2.8771e-10
-9.40969e-06
-4.34308e-07
-9.90676e-06
-5.52105e-07
-1.0128e-05
-4.21047e-07
-1.01443e-05
-2.83809e-07
-1.00731e-05
-1.97203e-07
-1.00045e-05
-1.43878e-07
-9.97408e-06
-8.55471e-08
-9.94821e-06
-6.0119e-08
-9.92328e-06
-4.86863e-08
-9.90989e-06
-3.05463e-08
-9.88726e-06
-2.71389e-08
-9.89126e-06
-4.74677e-09
-9.89022e-06
-6.61251e-09
-9.89721e-06
-1.64595e-09
-9.87948e-06
-1.19219e-08
-9.8673e-06
-7.95575e-09
-9.84972e-06
-8.12124e-10
-9.83107e-06
5.46195e-09
-9.81938e-06
2.2694e-08
-9.83803e-06
4.82646e-08
-9.86543e-06
5.39701e-08
-9.88993e-06
5.77792e-08
-9.91032e-06
4.95811e-08
-9.93041e-06
5.54872e-08
-9.93334e-06
4.25539e-08
-9.93168e-06
3.7932e-08
-9.94188e-06
3.37037e-08
-9.93043e-06
3.45229e-08
-9.93375e-06
5.45884e-08
-9.94598e-06
6.06289e-08
-9.98942e-06
8.43728e-08
-1.00257e-05
7.5292e-08
-1.00293e-05
5.80152e-08
-1.00352e-05
6.93246e-08
-1.00404e-05
7.61814e-08
-1.00144e-05
5.56868e-08
-1.00161e-05
5.65137e-08
-1.00517e-05
6.05604e-08
-1.00466e-05
4.38357e-08
-1.00134e-05
3.62274e-08
-1.00114e-05
8.95162e-08
-9.99149e-06
7.21616e-08
-1.00192e-05
7.37301e-08
5.38806e-08
-1.02055e-05
-3.40791e-07
-1.01663e-05
-2.52231e-07
-1.01282e-05
-1.84418e-07
-1.00964e-05
-1.34484e-07
-1.00716e-05
-9.81151e-08
-1.00529e-05
-7.1658e-08
-1.00389e-05
-5.23841e-08
-1.00285e-05
-3.83194e-08
-1.00209e-05
-2.80427e-08
-1.00153e-05
-2.05272e-08
-1.00112e-05
-1.50281e-08
-1.00082e-05
-1.10029e-08
-1.0006e-05
-8.05609e-09
-1.00044e-05
-5.89834e-09
-1.00032e-05
-4.31819e-09
-1.00024e-05
-3.16082e-09
-1.00017e-05
-2.3129e-09
-1.00013e-05
-1.69139e-09
-1.00009e-05
-1.23545e-09
-1.00007e-05
-9.00455e-10
-1.00005e-05
-6.53602e-10
-1.00004e-05
-4.7073e-10
-1.00003e-05
-3.33938e-10
-1.00002e-05
-2.29836e-10
-1.00002e-05
-1.48234e-10
-1.00002e-05
-8.11449e-11
-1.00002e-05
-2.2004e-11
-1.00002e-05
3.49749e-11
-1.00002e-05
9.53636e-11
-1.00003e-05
1.65063e-10
-1.00003e-05
2.50877e-10
-1.00004e-05
3.6117e-10
-1.00006e-05
5.06673e-10
-1.00007e-05
7.01512e-10
-1.0001e-05
9.64539e-10
-1.00014e-05
1.3211e-09
-1.00019e-05
1.80537e-09
-1.00026e-05
2.46342e-09
-1.00035e-05
3.35719e-09
-1.00047e-05
4.5697e-09
-1.00065e-05
6.21147e-09
-1.00088e-05
8.42837e-09
-1.0012e-05
1.14105e-08
-1.00164e-05
1.54016e-08
-1.00224e-05
2.07056e-08
-1.00304e-05
2.76886e-08
-1.00412e-05
3.67654e-08
-1.00555e-05
4.83589e-08
-1.0074e-05
6.28026e-08
-1.00972e-05
8.0123e-08
-1.01235e-05
9.95201e-08
-1.01469e-05
1.1801e-07
-1.01492e-05
1.26803e-07
-1.00896e-05
1.02806e-07
-9.89046e-06
-3.64154e-08
-9.64158e-06
-2.48595e-07
-9.68339e-06
-3.92499e-07
-9.82946e-06
-4.06036e-07
-9.91946e-06
-3.31051e-07
-9.96193e-06
-2.41329e-07
-9.94459e-06
-2.14547e-07
-9.92867e-06
-1.59804e-07
-9.89677e-06
-1.17443e-07
-9.87427e-06
-8.26128e-08
-9.87438e-06
-4.8585e-08
-9.88813e-06
-1.6792e-08
-9.89951e-06
-1.57599e-08
-9.89403e-06
-1.02234e-08
-9.87721e-06
-2.34379e-08
-9.86259e-06
-1.62647e-08
-9.87452e-06
1.52472e-11
-9.88331e-06
8.30562e-10
-9.90277e-06
1.86509e-08
-9.91996e-06
2.26494e-08
-9.92341e-06
2.61442e-08
-9.91475e-06
3.96008e-08
-9.90207e-06
4.12964e-08
-9.88292e-06
3.86247e-08
-9.87282e-06
3.94839e-08
-9.84849e-06
3.11583e-08
-9.83588e-06
2.99452e-08
-9.8244e-06
2.64522e-08
-9.83304e-06
4.23381e-08
-9.83928e-06
4.07687e-08
-9.8368e-06
5.21079e-08
-9.83281e-06
5.66355e-08
-9.81409e-06
6.56539e-08
-9.81792e-06
7.91245e-08
-9.8417e-06
8.17993e-08
-9.85955e-06
8.71742e-08
-9.8623e-06
7.8928e-08
-9.89325e-06
8.66397e-08
-9.91553e-06
7.87967e-08
-9.92129e-06
6.63146e-08
-9.9647e-06
8.72474e-08
-1.00248e-05
9.63606e-08
-1.00072e-05
7.18436e-08
-9.97915e-06
4.41526e-08
-1.00064e-05
1.0099e-07
4.74724e-08
-1.0117e-05
-3.49662e-07
-1.00985e-05
-2.70675e-07
-1.00782e-05
-2.04701e-07
-1.006e-05
-1.52689e-07
-1.00452e-05
-1.12991e-07
-1.00336e-05
-8.32345e-08
-1.00248e-05
-6.11564e-08
-1.00183e-05
-4.48687e-08
-1.00134e-05
-3.28915e-08
-1.00098e-05
-2.41001e-08
-1.00072e-05
-1.76536e-08
-1.00053e-05
-1.29293e-08
-1.00039e-05
-9.46825e-09
-1.00028e-05
-6.93298e-09
-1.00021e-05
-5.07594e-09
-1.00015e-05
-3.7156e-09
-1.00011e-05
-2.7189e-09
-1.00008e-05
-1.98831e-09
-1.00006e-05
-1.45234e-09
-1.00005e-05
-1.05854e-09
-1.00003e-05
-7.68346e-10
-1.00003e-05
-5.53368e-10
-1.00002e-05
-3.92559e-10
-1.00002e-05
-2.7018e-10
-1.00001e-05
-1.74249e-10
-1.00001e-05
-9.53788e-11
-1.00001e-05
-2.58491e-11
-1.00001e-05
4.11442e-11
-1.00001e-05
1.12155e-10
-1.00002e-05
1.94129e-10
-1.00002e-05
2.95077e-10
-1.00003e-05
4.2486e-10
-1.00004e-05
5.9614e-10
-1.00005e-05
8.2561e-10
-1.00007e-05
1.13559e-09
-1.00009e-05
1.55618e-09
-1.00012e-05
2.12807e-09
-1.00017e-05
2.90636e-09
-1.00023e-05
3.96563e-09
-1.00031e-05
5.40653e-09
-1.00043e-05
7.36448e-09
-1.00058e-05
1.00206e-08
-1.00081e-05
1.36149e-08
-1.00111e-05
1.84616e-08
-1.00154e-05
2.49641e-08
-1.00213e-05
3.36234e-08
-1.00296e-05
4.50301e-08
-1.0041e-05
5.98138e-08
-1.00567e-05
7.85018e-08
-1.00778e-05
1.01188e-07
-1.0105e-05
1.26778e-07
-1.01381e-05
1.51103e-07
-1.01729e-05
1.61529e-07
-1.01894e-05
1.19325e-07
-1.01004e-05
-1.2545e-07
-9.8557e-06
-4.93247e-07
-9.80959e-06
-4.38606e-07
-9.83784e-06
-3.7779e-07
-9.8631e-06
-3.05785e-07
-9.84961e-06
-2.54826e-07
-9.89469e-06
-1.69461e-07
-9.93822e-06
-1.16271e-07
-9.95881e-06
-9.68539e-08
-9.98148e-06
-5.99485e-08
-9.97358e-06
-5.64764e-08
-9.94514e-06
-4.52335e-08
-9.93846e-06
-2.24369e-08
-9.93748e-06
-1.12059e-08
-9.95398e-06
-6.93549e-09
-9.961e-06
-9.24769e-09
-9.96035e-06
-6.34579e-10
-9.97448e-06
1.49591e-08
-9.97891e-06
2.30833e-08
-9.99667e-06
4.0404e-08
-1.00062e-05
3.57158e-08
-1.00111e-05
4.4506e-08
-1.00219e-05
5.20694e-08
-1.00214e-05
3.8115e-08
-1.00357e-05
5.37553e-08
-1.0039e-05
3.44691e-08
-1.00488e-05
3.97269e-08
-1.00751e-05
5.27644e-08
-1.01004e-05
6.77034e-08
-1.01233e-05
6.36488e-08
-1.01302e-05
5.90156e-08
-1.01369e-05
6.3275e-08
-1.01293e-05
5.80562e-08
-1.01071e-05
5.69284e-08
-1.0096e-05
7.07051e-08
-1.00775e-05
6.87273e-08
-1.00718e-05
7.32057e-08
-1.00575e-05
7.2281e-08
-1.00533e-05
7.46491e-08
-1.00843e-05
9.73437e-08
-1.01071e-05
1.09965e-07
-1.01212e-05
1.10465e-07
-1.01181e-05
6.8787e-08
-1.01048e-05
3.08586e-08
-1.00287e-05
2.48653e-08
1.87949e-08
-1.0038e-05
-3.52046e-07
-1.00326e-05
-2.76104e-07
-1.00262e-05
-2.11022e-07
-1.00203e-05
-1.58581e-07
-1.00154e-05
-1.17924e-07
-1.00115e-05
-8.71327e-08
-1.00085e-05
-6.41383e-08
-1.00063e-05
-4.71076e-08
-1.00046e-05
-3.45546e-08
-1.00034e-05
-2.53279e-08
-1.00025e-05
-1.85569e-08
-1.00018e-05
-1.35925e-08
-1.00013e-05
-9.9546e-09
-1.0001e-05
-7.28939e-09
-1.00007e-05
-5.337e-09
-1.00005e-05
-3.90674e-09
-1.00004e-05
-2.85878e-09
-1.00003e-05
-2.09061e-09
-1.00002e-05
-1.52707e-09
-1.00002e-05
-1.113e-09
-1.00001e-05
-8.07878e-10
-1.00001e-05
-5.81837e-10
-1.00001e-05
-4.12753e-10
-1.00001e-05
-2.84075e-10
-1.00001e-05
-1.83206e-10
-1e-05
-1.00273e-10
-1e-05
-2.71586e-11
-1e-05
4.32948e-11
-1.00001e-05
1.17984e-10
-1.00001e-05
2.04219e-10
-1.00001e-05
3.10442e-10
-1.00001e-05
4.47051e-10
-1.00001e-05
6.27417e-10
-1.00002e-05
8.69194e-10
-1.00002e-05
1.19604e-09
-1.00003e-05
1.63995e-09
-1.00004e-05
2.24435e-09
-1.00006e-05
3.06833e-09
-1.00008e-05
4.19242e-09
-1.00011e-05
5.7263e-09
-1.00016e-05
7.81934e-09
-1.00023e-05
1.06745e-08
-1.00032e-05
1.45666e-08
-1.00046e-05
1.9866e-08
-1.00067e-05
2.70655e-08
-1.00099e-05
3.68105e-08
-1.00148e-05
4.99177e-08
-1.00223e-05
6.73643e-08
-1.0034e-05
9.02021e-08
-1.00522e-05
1.1935e-07
-1.00807e-05
1.553e-07
-1.01277e-05
1.98093e-07
-1.02144e-05
2.48247e-07
-1.03855e-05
2.90407e-07
-1.03478e-05
-1.63117e-07
-9.95277e-06
-8.88323e-07
-9.75749e-06
-6.33889e-07
-9.70893e-06
-4.26349e-07
-9.71801e-06
-2.96709e-07
-9.74334e-06
-2.29492e-07
-9.76217e-06
-1.50632e-07
-9.76217e-06
-1.16265e-07
-9.78551e-06
-7.35133e-08
-9.77251e-06
-7.2947e-08
-9.79078e-06
-3.82127e-08
-9.8127e-06
-2.33116e-08
-9.8204e-06
-1.47405e-08
-9.82688e-06
-4.72524e-09
-9.831e-06
-2.80633e-09
-9.85206e-06
1.18076e-08
-9.87522e-06
2.25217e-08
-9.87868e-06
1.84257e-08
-9.86722e-06
1.16225e-08
-9.84788e-06
2.10665e-08
-9.84218e-06
3.00169e-08
-9.82116e-06
2.34788e-08
-9.80014e-06
3.10537e-08
-9.80932e-06
4.72925e-08
-9.79981e-06
4.42479e-08
-9.81712e-06
5.17806e-08
-9.83408e-06
5.66856e-08
-9.83774e-06
5.64285e-08
-9.82963e-06
5.9587e-08
-9.84257e-06
7.65902e-08
-9.84996e-06
6.64118e-08
-9.86652e-06
7.98333e-08
-9.88889e-06
8.04198e-08
-9.91443e-06
8.24749e-08
-9.91868e-06
7.49499e-08
-9.92948e-06
7.95332e-08
-9.95609e-06
9.98133e-08
-9.99871e-06
1.14905e-07
-1.00359e-05
1.11834e-07
-1.00553e-05
1.16761e-07
-1.003e-05
8.46632e-08
-1.00066e-05
8.70494e-08
-1.00096e-05
7.18096e-08
-1.00319e-05
5.31798e-08
-1.00207e-05
1.36401e-08
-1.91808e-09
-9.96204e-06
-3.49662e-07
-9.96747e-06
-2.70675e-07
-9.97379e-06
-2.04701e-07
-9.97968e-06
-1.52689e-07
-9.98462e-06
-1.12991e-07
-9.98852e-06
-8.32344e-08
-9.9915e-06
-6.11564e-08
-9.99374e-06
-4.48687e-08
-9.9954e-06
-3.28915e-08
-9.99663e-06
-2.41001e-08
-9.99753e-06
-1.76536e-08
-9.99819e-06
-1.29293e-08
-9.99868e-06
-9.46824e-09
-9.99904e-06
-6.93297e-09
-9.9993e-06
-5.07593e-09
-9.99949e-06
-3.71558e-09
-9.99963e-06
-2.71888e-09
-9.99973e-06
-1.98829e-09
-9.9998e-06
-1.45233e-09
-9.99986e-06
-1.05852e-09
-9.9999e-06
-7.68329e-10
-9.99993e-06
-5.53351e-10
-9.99995e-06
-3.92542e-10
-9.99996e-06
-2.70161e-10
-9.99997e-06
-1.74227e-10
-9.99997e-06
-9.53502e-11
-9.99998e-06
-2.58079e-11
-9.99997e-06
4.1209e-11
-9.99997e-06
1.12265e-10
-9.99996e-06
1.9432e-10
-9.99994e-06
2.95421e-10
-9.99992e-06
4.25484e-10
-9.99989e-06
5.97282e-10
-9.99985e-06
8.27703e-10
-9.99979e-06
1.13944e-09
-9.99972e-06
1.56324e-09
-9.99961e-06
2.14103e-09
-9.99947e-06
2.93018e-09
-9.99929e-06
4.00939e-09
-9.99905e-06
5.48691e-09
-9.99874e-06
7.51206e-09
-9.99836e-06
1.02913e-08
-9.99791e-06
1.41112e-08
-9.99741e-06
1.93699e-08
-9.99697e-06
2.66216e-08
-9.99679e-06
3.66351e-08
-9.99734e-06
5.04657e-08
-9.9995e-06
6.95234e-08
-1.00049e-05
9.55918e-08
-1.00163e-05
1.30711e-07
-1.00379e-05
1.76978e-07
-1.00776e-05
2.37719e-07
-1.0157e-05
3.27736e-07
-1.02086e-05
3.41998e-07
-9.73852e-06
-6.33237e-07
-9.71303e-06
-9.13814e-07
-9.66877e-06
-6.78142e-07
-9.61958e-06
-4.75545e-07
-9.58916e-06
-3.27124e-07
-9.62208e-06
-1.9657e-07
-9.6359e-06
-1.36809e-07
-9.6715e-06
-8.067e-08
-9.68634e-06
-5.86739e-08
-9.72531e-06
-3.39728e-08
-9.7474e-06
-1.61257e-08
-9.77147e-06
7.56095e-10
-9.79735e-06
1.11427e-08
-9.79894e-06
-3.1308e-09
-9.81742e-06
1.56694e-08
-9.82325e-06
1.76443e-08
-9.81168e-06
1.09436e-08
-9.82685e-06
3.35995e-08
-9.84636e-06
3.11312e-08
-9.8472e-06
2.19057e-08
-9.84008e-06
2.29025e-08
-9.84814e-06
3.15336e-08
-9.85702e-06
3.99375e-08
-9.84773e-06
3.80008e-08
-9.85056e-06
4.70815e-08
-9.86365e-06
6.48698e-08
-9.87833e-06
7.13672e-08
-9.88948e-06
6.75728e-08
-9.8812e-06
5.13139e-08
-9.86088e-06
5.62639e-08
-9.84578e-06
5.13173e-08
-9.81558e-06
4.96281e-08
-9.79967e-06
6.45171e-08
-9.8146e-06
9.7401e-08
-9.84299e-06
1.03346e-07
-9.86889e-06
1.05428e-07
-9.85845e-06
8.93732e-08
-9.84054e-06
9.70012e-08
-9.83674e-06
1.0803e-07
-9.80549e-06
8.55184e-08
-9.82913e-06
1.08299e-07
-9.81791e-06
7.58306e-08
-9.77786e-06
3.17576e-08
-9.80781e-06
8.31353e-08
-9.87544e-06
8.1272e-08
1.22637e-07
-9.88305e-06
-3.40791e-07
-9.9015e-06
-2.52231e-07
-9.92178e-06
-1.84418e-07
-9.93999e-06
-1.34484e-07
-9.95486e-06
-9.81151e-08
-9.96644e-06
-7.1658e-08
-9.97521e-06
-5.23841e-08
-9.98176e-06
-3.83194e-08
-9.98661e-06
-2.80427e-08
-9.99018e-06
-2.05272e-08
-9.99281e-06
-1.50281e-08
-9.99473e-06
-1.10029e-08
-9.99614e-06
-8.05606e-09
-9.99718e-06
-5.89831e-09
-9.99794e-06
-4.31816e-09
-9.99849e-06
-3.16079e-09
-9.9989e-06
-2.31286e-09
-9.99919e-06
-1.69136e-09
-9.99941e-06
-1.23542e-09
-9.99957e-06
-9.00422e-10
-9.99968e-06
-6.53569e-10
-9.99977e-06
-4.70697e-10
-9.99982e-06
-3.33904e-10
-9.99986e-06
-2.29799e-10
-9.99989e-06
-1.48192e-10
-9.9999e-06
-8.10936e-11
-9.99991e-06
-2.19329e-11
-9.9999e-06
3.50839e-11
-9.99989e-06
9.5544e-11
-9.99986e-06
1.65376e-10
-9.99981e-06
2.51436e-10
-9.99975e-06
3.62182e-10
-9.99966e-06
5.08522e-10
-9.99954e-06
7.04898e-10
-9.99937e-06
9.70755e-10
-9.99914e-06
1.33252e-09
-9.99882e-06
1.82635e-09
-9.99839e-06
2.50197e-09
-9.99781e-06
3.42803e-09
-9.99703e-06
4.69986e-09
-9.99597e-06
6.4506e-09
-9.99454e-06
8.86757e-09
-9.99265e-06
1.22169e-08
-9.99016e-06
1.68807e-08
-9.98695e-06
2.34156e-08
-9.98296e-06
3.26426e-08
-9.97828e-06
4.57863e-08
-9.97343e-06
6.46716e-08
-9.96977e-06
9.19305e-08
-9.96998e-06
1.30922e-07
-9.97719e-06
1.84182e-07
-9.98615e-06
2.46675e-07
-9.94128e-06
2.82871e-07
-9.57827e-06
-2.1014e-08
-9.57862e-06
-6.3289e-07
-9.82088e-06
-6.7155e-07
-9.93733e-06
-5.61694e-07
-1.00778e-05
-3.35089e-07
-1.01413e-05
-2.63605e-07
-1.01235e-05
-2.14421e-07
-1.00996e-05
-1.60649e-07
-1.00822e-05
-9.80858e-08
-1.00664e-05
-7.44323e-08
-1.00659e-05
-3.45127e-08
-1.00438e-05
-3.82696e-08
-1.00328e-05
-1.01997e-08
-1.00234e-05
1.75125e-09
-1.00267e-05
1.65434e-10
-1.00153e-05
4.30404e-09
-1.00131e-05
1.54026e-08
-1.0023e-05
2.08407e-08
-1.00064e-05
1.6968e-08
-9.99577e-06
2.05452e-08
-1.00001e-05
2.62412e-08
-1.00227e-05
4.5457e-08
-1.00251e-05
3.4003e-08
-1.00298e-05
4.45667e-08
-1.00517e-05
5.99572e-08
-1.00682e-05
6.35967e-08
-1.00591e-05
5.57393e-08
-1.00304e-05
4.26382e-08
-1.00209e-05
5.81465e-08
-1.00219e-05
5.22736e-08
-1.00145e-05
4.88345e-08
-1.00293e-05
6.61169e-08
-1.00405e-05
6.08613e-08
-1.00507e-05
7.46632e-08
-1.00425e-05
8.92791e-08
-1.00539e-05
1.14724e-07
-1.00627e-05
1.14184e-07
-1.00689e-05
9.55703e-08
-1.00402e-05
6.82919e-08
-1.00151e-05
8.29694e-08
-1.00305e-05
1.00939e-07
-9.9999e-06
7.76871e-08
-9.99283e-06
6.8766e-08
-1.00424e-05
8.13529e-08
-1.00413e-05
8.20275e-08
-1.00739e-05
1.13823e-07
4.87668e-08
-9.79449e-06
-3.17264e-07
-9.83369e-06
-2.13038e-07
-9.87185e-06
-1.46258e-07
-9.90362e-06
-1.02715e-07
-9.9284e-06
-7.33272e-08
-9.94716e-06
-5.28985e-08
-9.96114e-06
-3.84026e-08
-9.97148e-06
-2.79821e-08
-9.97909e-06
-2.04326e-08
-9.98468e-06
-1.4938e-08
-9.98878e-06
-1.09285e-08
-9.99179e-06
-7.99821e-09
-9.99399e-06
-5.85477e-09
-9.9956e-06
-4.28607e-09
-9.99678e-06
-3.13761e-09
-9.99764e-06
-2.29655e-09
-9.99828e-06
-1.68043e-09
-9.99874e-06
-1.22884e-09
-9.99908e-06
-8.97575e-10
-9.99932e-06
-6.5418e-10
-9.9995e-06
-4.74829e-10
-9.99963e-06
-3.41964e-10
-9.99972e-06
-2.42578e-10
-9.99978e-06
-1.66942e-10
-9.99982e-06
-1.07651e-10
-9.99985e-06
-5.88997e-11
-9.99985e-06
-1.59149e-11
-9.99984e-06
2.55147e-11
-9.99982e-06
6.94505e-11
-9.99977e-06
1.20204e-10
-9.9997e-06
1.82763e-10
-9.9996e-06
2.63287e-10
-9.99946e-06
3.69723e-10
-9.99927e-06
5.12613e-10
-9.99901e-06
7.06165e-10
-9.99864e-06
9.69737e-10
-9.99815e-06
1.32989e-09
-9.99747e-06
1.8233e-09
-9.99654e-06
2.50088e-09
-9.99528e-06
3.43389e-09
-9.99355e-06
4.72288e-09
-9.99119e-06
6.51144e-09
-9.98798e-06
9.00788e-09
-9.98362e-06
1.25204e-08
-9.97773e-06
1.75173e-08
-9.96982e-06
2.47331e-08
-9.9594e-06
3.53652e-08
-9.94617e-06
5.14459e-08
-9.93078e-06
7.6536e-08
-9.91672e-06
1.16867e-07
-9.91469e-06
1.82151e-07
-9.94689e-06
2.78874e-07
-9.99631e-06
3.32282e-07
-9.7942e-06
-2.23126e-07
-9.69684e-06
-7.30247e-07
-9.79997e-06
-5.6842e-07
-9.95361e-06
-4.08051e-07
-9.98818e-06
-3.00523e-07
-9.98915e-06
-2.62632e-07
-1.00167e-05
-1.86905e-07
-1.00538e-05
-1.2356e-07
-1.00713e-05
-8.05383e-08
-1.00972e-05
-4.85238e-08
-1.00904e-05
-4.1313e-08
-1.01136e-05
-1.50822e-08
-1.01176e-05
-6.18279e-09
-1.01125e-05
-3.32243e-09
-1.01112e-05
-1.16164e-09
-1.01221e-05
1.5219e-08
-1.01181e-05
1.14288e-08
-1.01155e-05
1.81488e-08
-1.01189e-05
2.03607e-08
-1.01293e-05
3.0961e-08
-1.01462e-05
4.3176e-08
-1.01402e-05
3.94338e-08
-1.01455e-05
3.93709e-08
-1.01222e-05
2.11821e-08
-1.0099e-05
3.67897e-08
-1.00722e-05
3.68508e-08
-1.00521e-05
3.55954e-08
-1.00585e-05
4.90332e-08
-1.00467e-05
4.63502e-08
-1.00595e-05
6.50395e-08
-1.00855e-05
7.48233e-08
-1.00828e-05
6.34762e-08
-1.00947e-05
7.27217e-08
-1.00926e-05
7.25738e-08
-1.00702e-05
6.68801e-08
-1.00317e-05
7.62525e-08
-9.99716e-06
7.96358e-08
-9.98348e-06
8.18863e-08
-1.00077e-05
9.24757e-08
-1.00172e-05
9.24936e-08
-9.99239e-06
7.61465e-08
-9.95299e-06
3.8288e-08
-9.91131e-06
2.70832e-08
-9.92739e-06
9.74296e-08
-9.96138e-06
1.16024e-07
-9.93863e-06
9.10705e-08
1.10138e-07
-9.69027e-06
-2.47692e-07
-9.76691e-06
-1.36398e-07
-9.8283e-06
-8.48612e-08
-9.87423e-06
-5.67891e-08
-9.90798e-06
-3.95806e-08
-9.93267e-06
-2.82062e-08
-9.95072e-06
-2.03456e-08
-9.96393e-06
-1.47738e-08
-9.9736e-06
-1.07675e-08
-9.98067e-06
-7.86382e-09
-9.98585e-06
-5.74974e-09
-9.98964e-06
-4.20666e-09
-9.99242e-06
-3.07875e-09
-9.99445e-06
-2.2536e-09
-9.99594e-06
-1.64964e-09
-9.99703e-06
-1.20739e-09
-9.99782e-06
-8.83446e-10
-9.99841e-06
-6.46022e-10
-9.99883e-06
-4.71858e-10
-9.99914e-06
-3.43895e-10
-9.99937e-06
-2.49604e-10
-9.99953e-06
-1.79753e-10
-9.99964e-06
-1.27503e-10
-9.99972e-06
-8.77396e-11
-9.99977e-06
-5.65693e-11
-9.9998e-06
-3.09402e-11
-9.99981e-06
-8.34231e-12
-9.9998e-06
1.34387e-11
-9.99976e-06
3.65387e-11
-9.99971e-06
6.32257e-11
-9.99962e-06
9.61243e-11
-9.9995e-06
1.38477e-10
-9.99932e-06
1.94471e-10
-9.99908e-06
2.69663e-10
-9.99874e-06
3.71551e-10
-9.99828e-06
5.10367e-10
-9.99765e-06
7.00175e-10
-9.99679e-06
9.60443e-10
-9.99561e-06
1.31831e-09
-9.99399e-06
1.81193e-09
-9.99176e-06
2.49554e-09
-9.9887e-06
3.44741e-09
-9.98447e-06
4.78273e-09
-9.97863e-06
6.67575e-09
-9.97051e-06
9.39998e-09
-9.95919e-06
1.34071e-08
-9.94332e-06
1.94956e-08
-9.92108e-06
2.92105e-08
-9.89045e-06
4.59008e-08
-9.85144e-06
7.78573e-08
-9.81795e-06
1.48661e-07
-9.86726e-06
3.28181e-07
-9.95296e-06
4.1798e-07
-9.57435e-06
-6.01734e-07
-9.65385e-06
-6.50749e-07
-9.77042e-06
-4.51846e-07
-9.9524e-06
-2.26078e-07
-1.00522e-05
-2.00756e-07
-1.01551e-05
-1.59681e-07
-1.02376e-05
-1.04467e-07
-1.03128e-05
-4.83e-08
-1.03423e-05
-5.10449e-08
-1.03369e-05
-5.38819e-08
-1.0335e-05
-4.32444e-08
-1.034e-05
-1.00738e-08
-1.03382e-05
-8.02299e-09
-1.03363e-05
-5.23482e-09
-1.03439e-05
6.46311e-09
-1.03472e-05
1.85271e-08
-1.03521e-05
1.62891e-08
-1.03485e-05
1.46267e-08
-1.03454e-05
1.72605e-08
-1.03403e-05
2.58627e-08
-1.0343e-05
4.57984e-08
-1.03473e-05
4.37264e-08
-1.03308e-05
2.2914e-08
-1.0331e-05
2.14075e-08
-1.03138e-05
1.96105e-08
-1.02957e-05
1.86814e-08
-1.02889e-05
2.87794e-08
-1.02979e-05
5.80316e-08
-1.02945e-05
4.3002e-08
-1.02752e-05
4.57754e-08
-1.02547e-05
5.43311e-08
-1.02515e-05
6.02711e-08
-1.02337e-05
5.48526e-08
-1.02376e-05
7.65154e-08
-1.02395e-05
6.87357e-08
-1.02019e-05
3.87266e-08
-1.01634e-05
4.10832e-08
-1.01384e-05
5.69383e-08
-1.01284e-05
8.24467e-08
-1.01027e-05
6.67493e-08
-1.00722e-05
4.56997e-08
-1.01161e-05
8.21913e-08
-1.01376e-05
4.85422e-08
-1.00723e-05
3.21571e-08
-9.99441e-06
3.81282e-08
-9.97421e-06
7.08688e-08
1.35928e-07
-9.57897e-06
-9.71537e-06
-9.80023e-06
-9.85702e-06
-9.8966e-06
-9.92481e-06
-9.94515e-06
-9.95993e-06
-9.97069e-06
-9.97856e-06
-9.98431e-06
-9.98851e-06
-9.99159e-06
-9.99385e-06
-9.9955e-06
-9.9967e-06
-9.99759e-06
-9.99823e-06
-9.9987e-06
-9.99905e-06
-9.9993e-06
-9.99948e-06
-9.9996e-06
-9.99969e-06
-9.99975e-06
-9.99978e-06
-9.99979e-06
-9.99977e-06
-9.99974e-06
-9.99967e-06
-9.99958e-06
-9.99944e-06
-9.99925e-06
-9.99898e-06
-9.9986e-06
-9.99809e-06
-9.99739e-06
-9.99643e-06
-9.99512e-06
-9.9933e-06
-9.99081e-06
-9.98736e-06
-9.98258e-06
-9.9759e-06
-9.9665e-06
-9.9531e-06
-9.9336e-06
-9.90439e-06
-9.85849e-06
-9.78064e-06
-9.63197e-06
-9.30379e-06
-8.88582e-06
-9.48755e-06
-1.01383e-05
-1.05901e-05
-1.08162e-05
-1.1017e-05
-1.11767e-05
-1.12811e-05
-1.13294e-05
-1.13805e-05
-1.14344e-05
-1.14776e-05
-1.14877e-05
-1.14957e-05
-1.15009e-05
-1.14945e-05
-1.14759e-05
-1.14596e-05
-1.1445e-05
-1.14278e-05
-1.14019e-05
-1.13561e-05
-1.13124e-05
-1.12895e-05
-1.1268e-05
-1.12484e-05
-1.12298e-05
-1.1201e-05
-1.11429e-05
-1.10999e-05
-1.10542e-05
-1.09998e-05
-1.09396e-05
-1.08847e-05
-1.08082e-05
-1.07395e-05
-1.07007e-05
-1.06597e-05
-1.06027e-05
-1.05203e-05
-1.04535e-05
-1.04078e-05
-1.03256e-05
-1.02771e-05
-1.02449e-05
-1.02068e-05
-1.01359e-05
)
;

boundaryField
{
    inlet
    {
        type            calculated;
        value           nonuniform List<scalar> 10(-1e-05 -1e-05 -1e-05 -1e-05 -1e-05 -1e-05 -1e-05 -1e-05 -1e-05 -1e-05);
    }
    outlet
    {
        type            calculated;
        value           nonuniform List<scalar> 10(1.06687e-05 1.03793e-05 1.02291e-05 1.01258e-05 1.00404e-05 9.95966e-06 9.87418e-06 9.77097e-06 9.62069e-06 9.33128e-06);
    }
    walls
    {
        type            calculated;
        value           uniform 0;
    }
}


// ************************************************************************* //
