/*--------------------------------*- C++ -*----------------------------------*\
| =========                 |                                                 |
| \\      /  F ield         | foam-extend: Open Source CFD                    |
|  \\    /   O peration     | Version:     5.0                                |
|   \\  /    A nd           | Web:         http://www.foam-extend.org         |
|    \\/     M anipulation  |                                                 |
\*---------------------------------------------------------------------------*/
FoamFile
{
    version     2.0;
    format      ascii;
    class       surfaceScalarField;
    location    "6000";
    object      phi.gas;
}
// * * * * * * * * * * * * * * * * * * * * * * * * * * * * * * * * * * * * * //

dimensions      [0 3 -1 0 0 0 0];

internalField   nonuniform List<scalar> 
1890
(
0
0
0
0
0
0
0
0
0
0
0
0
0
0
0
0
0
0
0
0
0
0
0
0
0
0
0
0
0
0
0
0
0
0
0
0
0
0
0
0
0
0
0
0
0
0
0
0
0
0
0
0
0
0
0
0
0
0
0
0
0
0
0
0
0
0
0
0
0
0
0
0
0
0
0
0
0
0
0
0
0
0
0
0
0
0
0
0
0
0
0
0
0
0
0
0
0
0
0
0
0
0
5.36223e-55
0
2.55861e-24
-1.21492e-23
5.41192e-14
-2.26107e-12
-3.43516e-08
-1.13569e-09
-4.49376e-06
-2.60198e-08
-2.20084e-05
-5.26673e-06
-4.39841e-05
-7.83781e-06
-4.83075e-05
-3.72389e-06
-5.07147e-05
-1.33401e-06
-5.39749e-05
-3.4204e-07
-5.54068e-05
1.16463e-08
-5.43218e-05
9.76358e-08
-6.36463e-05
1.96491e-07
-6.00101e-05
3.45713e-07
-5.2603e-05
2.41392e-07
-5.78339e-05
3.96307e-07
-6.60458e-05
2.94188e-07
-7.66607e-05
3.9007e-07
-6.59457e-05
3.12116e-07
-6.63792e-05
4.14726e-07
-6.8067e-05
4.36819e-07
-5.69584e-05
4.8461e-07
-5.33241e-05
4.74487e-07
-5.12084e-05
5.49072e-07
-5.48478e-05
3.973e-07
-5.60198e-05
3.99722e-07
-5.75067e-05
4.17282e-07
-6.02329e-05
4.16365e-07
-5.60527e-05
4.31743e-07
-5.88117e-05
4.56199e-07
-7.08262e-05
5.35299e-07
-6.47182e-05
3.64441e-07
-5.71119e-05
4.94681e-07
-5.98134e-05
5.30662e-07
-5.96563e-05
4.70974e-07
-5.94062e-05
3.60784e-07
-5.90991e-05
3.34079e-07
-5.60219e-05
4.83614e-07
-5.32695e-05
4.76832e-07
-5.06658e-05
5.06287e-07
-5.27495e-05
5.83609e-07
-6.38453e-05
4.03206e-07
-6.12486e-05
2.07221e-07
-5.61879e-05
3.26695e-07
-5.16114e-05
5.05259e-07
-4.9987e-05
4.91213e-07
-5.27453e-05
5.99231e-07
-5.42953e-05
2.30685e-07
4.5354e-07
0
0
0
0
0
0
0
0
0
0
0
0
0
0
0
0
0
0
0
0
0
0
0
0
0
0
0
0
0
0
0
0
0
0
0
0
0
0
0
0
0
0
0
0
0
0
0
0
0
0
0
0
0
0
0
0
0
0
0
0
0
0
0
0
0
0
0
0
0
0
0
0
0
0
0
0
0
0
0
0
0
0
0
0
0
0
0
0
0
0
0
0
0
0
0
0
0
0
0
0
0
0
8.37628e-18
0
-2.38387e-09
-4.25541e-19
-1.17885e-06
7.12092e-11
-2.85642e-05
3.51608e-08
-7.18717e-05
4.84194e-07
-6.92291e-05
-1.10348e-06
-6.3642e-05
-2.65188e-06
-6.02311e-05
-1.90771e-06
-7.10581e-05
-1.07293e-06
-8.14842e-05
-9.27753e-07
-6.71763e-05
-4.32402e-07
-6.26554e-05
-6.25121e-08
-7.62832e-05
8.70172e-08
-6.9816e-05
1.71529e-07
-7.00916e-05
2.04755e-07
-7.12383e-05
2.64738e-07
-6.78884e-05
3.67385e-07
-6.92393e-05
4.22877e-07
-7.31014e-05
3.78891e-07
-8.39002e-05
3.09809e-07
-8.36851e-05
3.11259e-07
-8.3238e-05
3.64029e-07
-8.29367e-05
3.45077e-07
-6.76449e-05
5.30155e-07
-5.50067e-05
5.78306e-07
-5.72849e-05
5.87584e-07
-5.96833e-05
6.76292e-07
-6.08718e-05
5.36096e-07
-6.51929e-05
6.65562e-07
-7.6283e-05
5.16341e-07
-6.95564e-05
5.91607e-07
-6.75868e-05
3.64855e-07
-7.70635e-05
4.29139e-07
-7.0226e-05
6.11499e-07
-5.84407e-05
5.45632e-07
-5.21846e-05
6.62178e-07
-6.07518e-05
5.1759e-07
-6.83439e-05
4.71386e-07
-6.42022e-05
5.2091e-07
-7.1087e-05
5.872e-07
-7.00261e-05
4.41745e-07
-5.60875e-05
3.97179e-07
-5.55853e-05
3.76378e-07
-6.75227e-05
2.80206e-07
-6.42834e-05
2.47851e-07
-6.34206e-05
5.81769e-07
-5.55823e-05
5.33282e-07
-5.33277e-05
3.40923e-07
3.45238e-07
0
0
0
0
0
0
0
0
0
0
0
0
0
0
0
0
0
0
0
0
0
0
0
0
0
0
0
0
0
0
0
0
0
0
0
0
0
0
0
0
0
0
0
0
0
0
0
0
0
0
0
0
0
0
0
0
0
0
0
0
0
0
0
0
0
0
0
0
0
0
0
0
0
0
0
0
0
0
0
0
0
0
0
0
0
0
0
0
0
0
0
0
0
0
0
0
0
0
0
0
0
0
2.96584e-18
0
-2.25847e-09
-1.52399e-19
-1.15585e-06
3.49248e-11
-2.10192e-05
1.8384e-08
-5.92916e-05
6.72474e-08
-7.1958e-05
-8.11739e-07
-7.28053e-05
-1.79294e-06
-6.65811e-05
-1.56991e-06
-7.31046e-05
-1.01928e-06
-7.38535e-05
-9.10321e-07
-7.04766e-05
-4.72712e-07
-7.57949e-05
-2.89222e-07
-7.55705e-05
-8.02114e-08
-6.46414e-05
1.39539e-07
-5.92434e-05
3.29285e-07
-6.80386e-05
2.99622e-07
-7.97085e-05
3.93336e-07
-8.17484e-05
2.3679e-07
-6.89176e-05
2.73704e-07
-6.25555e-05
3.53382e-07
-6.38796e-05
3.06811e-07
-5.95165e-05
4.70492e-07
-6.22706e-05
3.84303e-07
-7.19833e-05
4.66613e-07
-7.16228e-05
6.00421e-07
-7.53834e-05
5.37878e-07
-7.07753e-05
5.93203e-07
-7.2531e-05
4.61503e-07
-7.38887e-05
5.15284e-07
-7.15641e-05
3.94006e-07
-6.38714e-05
3.95335e-07
-5.53997e-05
3.93964e-07
-6.4929e-05
3.7908e-07
-6.6053e-05
6.0182e-07
-6.57063e-05
4.85812e-07
-6.17422e-05
6.5285e-07
-5.22278e-05
6.09761e-07
-5.29929e-05
5.68601e-07
-5.89338e-05
6.60775e-07
-5.68778e-05
6.08497e-07
-5.27201e-05
5.94149e-07
-5.4565e-05
5.19005e-07
-5.14035e-05
3.93344e-07
-4.76668e-05
4.84037e-07
-5.65822e-05
5.37108e-07
-6.91533e-05
5.27979e-07
-5.41923e-05
2.94744e-07
-5.19956e-05
5.51482e-07
2.88252e-07
0
0
0
0
0
0
0
0
0
0
0
0
0
0
0
0
0
0
0
0
0
0
0
0
0
0
0
0
0
0
0
0
0
0
0
0
0
0
0
0
0
0
0
0
0
0
0
0
0
0
0
0
0
0
0
0
0
0
0
0
0
0
0
0
0
0
0
0
0
0
0
0
0
0
0
0
0
0
0
0
0
0
0
0
0
0
0
0
0
0
0
0
0
0
0
0
0
0
0
0
0
0
1.21337e-16
0
-5.66499e-09
-6.67009e-18
-1.96773e-06
9.40742e-11
-1.89278e-05
2.11198e-08
-5.65653e-05
-2.22875e-07
-6.86455e-05
-9.53498e-07
-7.3445e-05
-1.49331e-06
-7.99376e-05
-1.41976e-06
-7.29246e-05
-1.13613e-06
-6.08092e-05
-5.50523e-07
-5.9968e-05
-2.10604e-07
-6.11594e-05
-1.09513e-07
-6.89936e-05
9.84899e-08
-8.57249e-05
1.0722e-07
-7.79035e-05
1.65651e-07
-7.58119e-05
2.85611e-07
-6.96344e-05
4.28987e-07
-6.18866e-05
3.32779e-07
-6.96456e-05
2.88812e-07
-6.43604e-05
3.63125e-07
-6.60316e-05
4.00338e-07
-6.56062e-05
5.92319e-07
-5.98263e-05
5.92335e-07
-6.87609e-05
5.23086e-07
-6.84204e-05
7.16754e-07
-6.8295e-05
6.99875e-07
-6.61771e-05
5.01933e-07
-6.60538e-05
6.42753e-07
-6.72889e-05
4.50103e-07
-6.22421e-05
4.34316e-07
-6.05496e-05
5.41527e-07
-5.7602e-05
6.36022e-07
-6.79481e-05
5.07528e-07
-7.30425e-05
6.64532e-07
-7.0697e-05
5.3432e-07
-7.63551e-05
5.52681e-07
-6.9298e-05
4.75984e-07
-7.06517e-05
5.67893e-07
-7.18454e-05
5.8372e-07
-6.91487e-05
5.49941e-07
-6.63973e-05
5.26709e-07
-5.49183e-05
4.85317e-07
-5.19791e-05
5.41575e-07
-5.76048e-05
7.09662e-07
-6.48464e-05
7.7494e-07
-6.36627e-05
4.9743e-07
-6.25163e-05
1.84003e-07
-6.23838e-05
1.68823e-07
1.14011e-07
0
0
0
0
0
0
0
0
0
0
0
0
0
0
0
0
0
0
0
0
0
0
0
0
0
0
0
0
0
0
0
0
0
0
0
0
0
0
0
0
0
0
0
0
0
0
0
0
0
0
0
0
0
0
0
0
0
0
0
0
0
0
0
0
0
0
0
0
0
0
0
0
0
0
0
0
0
0
0
0
0
0
0
0
0
0
0
0
0
0
0
0
0
0
0
0
0
0
0
0
0
0
1.49798e-15
-1.23962e-34
-1.59485e-08
-4.06045e-14
-2.80881e-06
-9.79482e-11
-2.32396e-05
1.28732e-09
-5.87549e-05
-2.86389e-06
-6.83516e-05
-2.6909e-06
-7.42769e-05
-1.93255e-06
-7.15873e-05
-1.5125e-06
-7.08805e-05
-7.81418e-07
-7.47035e-05
-4.70737e-07
-6.55511e-05
-2.0477e-07
-7.1454e-05
4.11662e-08
-7.67524e-05
1.94426e-08
-6.42278e-05
2.29952e-07
-6.4386e-05
2.77625e-07
-7.50142e-05
3.17777e-07
-7.47302e-05
5.00437e-07
-6.1131e-05
3.52843e-07
-5.8562e-05
4.05659e-07
-6.2555e-05
5.48821e-07
-7.25297e-05
4.38007e-07
-8.33502e-05
4.28485e-07
-7.17041e-05
5.29243e-07
-7.36058e-05
5.08543e-07
-8.76406e-05
5.00812e-07
-6.70016e-05
5.54523e-07
-6.53788e-05
5.37717e-07
-6.47773e-05
6.21374e-07
-5.39369e-05
4.92817e-07
-5.86098e-05
5.05391e-07
-6.74079e-05
5.60586e-07
-6.05131e-05
6.25817e-07
-6.03549e-05
6.57151e-07
-6.28241e-05
6.60766e-07
-5.81937e-05
7.00712e-07
-5.52335e-05
6.72969e-07
-5.61932e-05
5.56835e-07
-6.11538e-05
5.35143e-07
-5.91387e-05
5.55482e-07
-5.59452e-05
7.18948e-07
-5.30476e-05
7.94833e-07
-5.25346e-05
6.57768e-07
-5.98592e-05
7.46938e-07
-7.16121e-05
5.30191e-07
-7.04087e-05
6.91598e-07
-5.69143e-05
5.28434e-07
-5.46372e-05
2.77834e-07
-5.90566e-05
8.42355e-08
-4.06509e-09
0
0
0
0
0
0
0
0
0
0
0
0
0
0
0
0
0
0
0
0
0
0
0
0
0
0
0
0
0
0
0
0
0
0
0
0
0
0
0
0
0
0
0
0
0
0
0
0
0
0
0
0
0
0
0
0
0
0
0
0
0
0
0
0
0
0
0
0
0
0
0
0
0
0
0
0
0
0
0
0
0
0
0
0
0
0
0
0
0
0
0
0
0
0
0
0
0
0
0
0
2.77681e-25
0
-4.51833e-11
-3.55684e-19
-1.62048e-07
-1.87719e-11
-9.5206e-06
-1.07468e-09
-5.74681e-05
-1.11461e-06
-7.15056e-05
-4.00123e-06
-6.97908e-05
-4.06385e-06
-7.73366e-05
-2.33644e-06
-6.77395e-05
-1.89124e-06
-6.84684e-05
-7.73564e-07
-6.93464e-05
-5.40293e-07
-6.52568e-05
-4.64466e-08
-6.20331e-05
8.1606e-08
-6.26208e-05
1.93352e-07
-6.54461e-05
3.79117e-07
-5.98058e-05
4.23361e-07
-7.10466e-05
4.9176e-07
-6.87332e-05
4.22485e-07
-5.85194e-05
4.58035e-07
-7.0704e-05
4.57656e-07
-6.84038e-05
4.30398e-07
-5.80777e-05
5.84593e-07
-6.35551e-05
5.15004e-07
-6.99036e-05
4.52796e-07
-6.61198e-05
4.12996e-07
-6.43666e-05
4.72405e-07
-6.74347e-05
5.53272e-07
-6.88306e-05
4.64632e-07
-6.19869e-05
5.41588e-07
-5.64473e-05
6.27196e-07
-5.87605e-05
6.88758e-07
-6.4287e-05
6.67445e-07
-7.09172e-05
5.03313e-07
-7.23159e-05
6.24833e-07
-7.3933e-05
4.99091e-07
-7.31929e-05
4.9752e-07
-6.02037e-05
5.51717e-07
-5.22301e-05
7.27179e-07
-5.18765e-05
6.65104e-07
-5.90123e-05
7.06796e-07
-6.82522e-05
6.59803e-07
-6.05003e-05
8.1928e-07
-5.84292e-05
7.25227e-07
-5.46487e-05
5.43992e-07
-5.6896e-05
6.70912e-07
-6.97784e-05
6.04094e-07
-5.4772e-05
2.075e-07
-4.50187e-05
4.54718e-07
-4.50775e-05
3.91368e-07
6.64159e-07
0
0
0
0
0
0
0
0
0
0
0
0
0
0
0
0
0
0
0
0
0
0
0
0
0
0
0
0
0
0
0
0
0
0
0
0
0
0
0
0
0
0
0
0
0
0
0
0
0
0
0
0
0
0
0
0
0
0
0
0
0
0
0
0
0
0
0
0
0
0
0
0
0
0
0
0
0
0
0
0
0
0
0
0
0
0
0
0
0
0
0
0
0
0
0
0
0
0
0
0
8.38376e-15
0
-1.93794e-08
-8.42702e-16
-1.99124e-06
1.90937e-10
-3.73555e-05
2.25979e-08
-6.00473e-05
-1.06322e-06
-7.21982e-05
-2.49812e-06
-6.46015e-05
-2.5678e-06
-6.451e-05
-1.64053e-06
-7.20651e-05
-1.31905e-06
-8.24104e-05
-8.67884e-07
-8.41791e-05
-6.3586e-07
-7.5086e-05
-1.88638e-07
-6.76002e-05
-2.43904e-08
-7.50627e-05
2.28418e-07
-8.34655e-05
1.80325e-07
-8.09607e-05
3.80973e-07
-7.61492e-05
5.27047e-07
-7.21749e-05
3.85422e-07
-7.18489e-05
3.97121e-07
-6.33455e-05
4.66296e-07
-7.17135e-05
4.43738e-07
-8.19103e-05
5.12984e-07
-6.90914e-05
4.57296e-07
-5.97365e-05
4.16422e-07
-6.10687e-05
5.7944e-07
-7.03423e-05
4.57326e-07
-6.33235e-05
6.60548e-07
-5.90748e-05
6.20146e-07
-6.78632e-05
7.18939e-07
-7.73214e-05
6.68183e-07
-7.89911e-05
4.87105e-07
-6.6419e-05
7.12196e-07
-6.61643e-05
4.53048e-07
-6.72694e-05
4.81354e-07
-6.06065e-05
6.04533e-07
-6.01942e-05
4.79975e-07
-6.60791e-05
5.8214e-07
-6.53632e-05
7.89525e-07
-6.17041e-05
9.03674e-07
-6.26617e-05
9.35992e-07
-6.92245e-05
6.86045e-07
-7.45776e-05
5.14962e-07
-5.88841e-05
6.03095e-07
-5.98738e-05
6.30314e-07
-7.38665e-05
5.9936e-07
-5.78237e-05
5.72469e-07
-5.32337e-05
4.15496e-07
-5.45194e-05
4.7204e-07
-5.63569e-05
6.24483e-07
2.75428e-07
0
0
0
0
0
0
0
0
0
0
0
0
0
0
0
0
0
0
0
0
0
0
0
0
0
0
0
0
0
0
0
0
0
0
0
0
0
0
0
0
0
0
0
0
0
0
0
0
0
0
0
0
0
0
0
0
0
0
0
0
0
0
0
0
0
0
0
0
0
0
0
0
0
0
0
0
0
0
0
0
0
0
0
0
0
0
0
0
0
0
0
0
0
0
0
0
0
0
0
0
1.50302e-13
-1.2345e-30
-3.99337e-08
-2.03119e-13
-5.23977e-06
1.41049e-10
-4.2379e-05
1.06265e-08
-6.50549e-05
-2.82938e-06
-6.1153e-05
-2.53484e-06
-7.35368e-05
-1.52709e-06
-9.13085e-05
-1.8248e-06
-7.60779e-05
-1.27308e-06
-6.77037e-05
-6.557e-07
-7.517e-05
-3.34005e-07
-6.75886e-05
-9.75285e-08
-6.98833e-05
1.02635e-07
-6.92257e-05
1.59774e-07
-6.63333e-05
2.72017e-07
-8.40422e-05
3.91204e-07
-7.88946e-05
4.49072e-07
-6.57235e-05
3.25985e-07
-6.7303e-05
4.32416e-07
-7.04285e-05
3.94206e-07
-7.02397e-05
4.33467e-07
-6.82483e-05
4.45697e-07
-6.05362e-05
4.79893e-07
-6.80903e-05
4.97707e-07
-6.92639e-05
5.95066e-07
-7.10724e-05
4.84098e-07
-8.35944e-05
3.95649e-07
-8.31621e-05
5.44899e-07
-8.25431e-05
5.65852e-07
-6.40153e-05
4.56544e-07
-6.71963e-05
4.31668e-07
-6.64765e-05
5.57811e-07
-5.50332e-05
5.28775e-07
-6.43761e-05
6.29936e-07
-6.37378e-05
5.8977e-07
-5.90321e-05
5.48686e-07
-6.79701e-05
5.59922e-07
-7.77477e-05
5.50738e-07
-8.1964e-05
7.53806e-07
-7.15121e-05
7.66119e-07
-5.73338e-05
6.07086e-07
-5.55792e-05
5.815e-07
-6.21109e-05
6.57489e-07
-6.64041e-05
5.69171e-07
-7.14485e-05
2.5967e-07
-5.90515e-05
2.0257e-07
-4.92548e-05
5.98648e-07
-5.44496e-05
7.08239e-07
-5.29515e-05
5.29055e-07
5.44052e-07
0
0
0
0
0
0
0
0
0
0
0
0
0
0
0
0
0
0
0
0
0
0
0
0
0
0
0
0
0
0
0
0
0
0
0
0
0
0
0
0
0
0
0
0
0
0
0
0
0
0
0
0
0
0
0
0
0
0
0
0
0
0
0
0
0
0
0
0
0
0
0
0
0
0
0
0
0
0
0
0
0
0
0
0
0
0
0
0
0
0
0
0
0
0
0
0
0
0
1.54923e-22
-6.76296e-42
-2.16348e-10
-3.38284e-15
-3.18017e-07
-7.18605e-11
-9.92412e-06
-3.4461e-09
-6.98276e-05
-1.76417e-06
-7.45443e-05
-3.43135e-06
-6.27765e-05
-2.49647e-06
-7.32585e-05
-9.87168e-07
-7.44099e-05
-1.08412e-06
-6.13929e-05
-5.84982e-07
-6.19266e-05
-2.67678e-07
-7.14076e-05
4.21946e-08
-7.69554e-05
6.71823e-09
-7.48086e-05
-2.84677e-08
-7.27111e-05
1.69614e-08
-7.65873e-05
2.27149e-07
-8.55414e-05
2.41619e-07
-7.21231e-05
2.56164e-07
-6.7075e-05
2.58424e-07
-6.83749e-05
3.97009e-07
-6.66605e-05
3.11416e-07
-6.96759e-05
3.05331e-07
-6.94156e-05
3.11992e-07
-6.74364e-05
3.56329e-07
-6.89102e-05
5.2536e-07
-7.22303e-05
5.48452e-07
-6.49581e-05
3.09576e-07
-6.80239e-05
2.6566e-07
-7.93682e-05
3.05853e-07
-7.05662e-05
2.82599e-07
-6.06557e-05
2.94027e-07
-6.32849e-05
5.25775e-07
-6.76246e-05
4.06723e-07
-7.07696e-05
3.94794e-07
-7.01157e-05
5.26788e-07
-6.44752e-05
5.16327e-07
-6.23227e-05
4.14482e-07
-6.03858e-05
6.19711e-07
-6.99172e-05
5.28627e-07
-8.2768e-05
3.45804e-07
-7.21959e-05
3.70794e-07
-6.22983e-05
4.10577e-07
-6.49589e-05
6.17436e-07
-6.9682e-05
5.15986e-07
-5.69191e-05
3.14781e-07
-5.03271e-05
5.17414e-07
-6.16492e-05
2.75328e-07
-7.41131e-05
2.27545e-07
-6.20194e-05
2.61042e-07
-5.18306e-05
3.97827e-07
7.72165e-07
0
0
0
0
0
0
0
0
0
0
0
0
0
0
0
0
0
0
0
0
0
0
0
0
0
0
0
0
0
0
0
0
0
0
0
0
0
0
0
0
0
0
0
0
0
0
0
0
6.14149e-31
-2.98783e-12
-7.10929e-08
-4.91875e-06
-5.20268e-05
-6.98486e-05
-7.18184e-05
-7.8302e-05
-8.43182e-05
-7.47033e-05
-6.75975e-05
-8.20971e-05
-9.35597e-05
-7.54343e-05
-6.59571e-05
-7.37618e-05
-8.31354e-05
-8.07346e-05
-7.45522e-05
-7.81411e-05
-7.95844e-05
-7.17213e-05
-7.13182e-05
-7.08997e-05
-7.99913e-05
-9.4613e-05
-7.66142e-05
-6.30187e-05
-6.6942e-05
-6.96652e-05
-6.44902e-05
-7.41692e-05
-7.95248e-05
-6.7383e-05
-7.20277e-05
-7.95843e-05
-6.86296e-05
-7.16642e-05
-8.16007e-05
-6.79137e-05
-6.389e-05
-6.46955e-05
-7.11588e-05
-7.6479e-05
-6.18548e-05
-6.43664e-05
-6.29461e-05
-5.45934e-05
-5.76106e-05
-5.78358e-05
-6.10889e-05
)
;

boundaryField
{
    inlet
    {
        type            fixedValue;
        value           nonuniform List<scalar> 10(-5e-05 -5e-05 -5e-05 -5e-05 -5e-05 -5e-05 -5e-05 -5e-05 -5e-05 -5e-05);
    }
    outlet
    {
        type            calculated;
        value           uniform 0;
    }
    walls
    {
        type            fixedValue;
        value           uniform 0;
    }
}


// ************************************************************************* //
