/*--------------------------------*- C++ -*----------------------------------*\
| =========                 |                                                 |
| \\      /  F ield         | foam-extend: Open Source CFD                    |
|  \\    /   O peration     | Version:     5.0                                |
|   \\  /    A nd           | Web:         http://www.foam-extend.org         |
|    \\/     M anipulation  |                                                 |
\*---------------------------------------------------------------------------*/
FoamFile
{
    version     2.0;
    format      ascii;
    class       surfaceScalarField;
    location    "6000";
    object      phi.oil;
}
// * * * * * * * * * * * * * * * * * * * * * * * * * * * * * * * * * * * * * //

dimensions      [0 3 -1 0 0 0 0];

internalField   nonuniform List<scalar> 
1890
(
-6.13003e-05
-1.27022e-06
-5.41298e-05
-7.37286e-07
-4.97551e-05
-4.13957e-07
-4.83e-05
-3.2451e-07
-5.05171e-05
-2.08319e-07
-6.10619e-05
-1.61178e-07
-6.48701e-05
-1.31263e-07
-6.08491e-05
-9.23367e-08
-5.2786e-05
-5.12743e-08
-5.01073e-05
-4.13889e-08
-5.56429e-05
-2.738e-08
-5.72086e-05
-2.33708e-08
-5.40996e-05
-1.57888e-08
-5.55899e-05
-1.28782e-08
-5.00226e-05
-9.16511e-09
-4.34927e-05
-5.48855e-09
-4.34889e-05
-4.30992e-09
-5.40637e-05
-3.23055e-09
-5.26385e-05
-2.77615e-09
-5.00049e-05
-1.46376e-09
-4.8784e-05
-1.24845e-09
-4.65142e-05
-8.56368e-10
-5.40563e-05
-6.71504e-10
-6.06081e-05
-5.32246e-10
-5.88251e-05
-3.23715e-10
-4.76202e-05
-1.72354e-10
-4.87816e-05
-3.83371e-11
-5.00012e-05
6.83468e-11
-4.44457e-05
1.61725e-10
-4.54561e-05
2.86354e-10
-4.87826e-05
4.25553e-10
-4.76218e-05
7.06807e-10
-4.54581e-05
1.01742e-09
-4.87856e-05
1.24445e-09
-4.65182e-05
1.93527e-09
-4.16746e-05
2.14173e-09
-4.25642e-05
3.12366e-09
-5.13002e-05
4.35631e-09
-5.71703e-05
7.08046e-09
-5.40894e-05
9.11225e-09
-5.71936e-05
1.38074e-08
-5.56226e-05
1.81395e-08
-5.00817e-05
1.99049e-08
-4.88882e-05
2.73644e-08
-5.14347e-05
3.65632e-08
-5.01998e-05
5.66593e-08
-5.58523e-05
6.40799e-08
-6.49746e-05
1.13837e-07
-5.3127e-05
1.28159e-07
-4.49979e-05
1.4831e-07
-4.95907e-05
1.93325e-07
-4.98965e-05
3.58208e-07
-4.81086e-05
5.72841e-07
-6.06519e-05
1.23058e-06
-6.84689e-05
3.70293e-06
-6.9371e-05
2.58767e-06
-5.89699e-05
-4.4099e-06
-4.20435e-05
-3.97523e-06
-3.46857e-05
-2.19456e-06
-3.20971e-05
-1.18809e-06
-3.19957e-05
-9.38764e-07
-3.09268e-05
-7.656e-07
-2.87128e-05
-6.14398e-07
-3.17493e-05
-5.48037e-07
-2.9404e-05
-7.39041e-07
-2.42109e-05
-4.43823e-07
-2.56563e-05
-5.35928e-07
-2.81583e-05
-4.77249e-07
-3.17662e-05
-6.0471e-07
-2.65739e-05
-5.57419e-07
-2.54559e-05
-5.00687e-07
-2.55238e-05
-5.86017e-07
-2.04486e-05
-4.84217e-07
-1.83208e-05
-4.18698e-07
-1.68211e-05
-4.0284e-07
-1.71355e-05
-3.39944e-07
-1.68845e-05
-3.78262e-07
-1.64306e-05
-3.4783e-07
-1.65858e-05
-3.91006e-07
-1.46886e-05
-3.61254e-07
-1.45983e-05
-3.55531e-07
-1.67811e-05
-4.24587e-07
-1.48394e-05
-4.30369e-07
-1.2219e-05
-3.55059e-07
-1.21236e-05
-3.5782e-07
-1.13802e-05
-3.42293e-07
-1.06243e-05
-3.09321e-07
-9.86973e-06
-2.97645e-07
-8.71159e-06
-3.1011e-07
-7.56631e-06
-2.62928e-07
-6.55626e-06
-2.46361e-07
-6.02035e-06
-2.35782e-07
-6.54435e-06
-2.59609e-07
-5.76533e-06
-2.67523e-07
-4.42985e-06
-2.09231e-07
-3.49608e-06
-2.06848e-07
-2.4535e-06
-1.38748e-07
-1.90547e-06
-1.50201e-07
-9.75036e-07
-1.14894e-07
-7.42903e-08
-4.90941e-05
-1.44211e-06
-5.11656e-05
-1.12125e-06
-5.81241e-05
-8.60341e-07
-6.53277e-05
-5.86941e-07
-6.11639e-05
-4.58295e-07
-6.10143e-05
-2.64493e-07
-6.28081e-05
-2.13348e-07
-4.89565e-05
-1.39911e-07
-4.77449e-05
-9.96713e-08
-5.00968e-05
-9.05337e-08
-4.76865e-05
-5.08304e-08
-5.00519e-05
-4.44347e-08
-5.40952e-05
-2.92741e-08
-5.71747e-05
-2.31682e-08
-5.00204e-05
-1.79294e-08
-5.12974e-05
-1.24141e-08
-5.71554e-05
-8.19745e-09
-5.40628e-05
-5.85188e-09
-4.65172e-05
-4.37867e-09
-4.25569e-05
-3.04294e-09
-4.87837e-05
-2.43528e-09
-5.40567e-05
-1.66836e-09
-5.88257e-05
-1.27699e-09
-5.71446e-05
-9.54251e-10
-5.40554e-05
-5.1289e-10
-5.26327e-05
-3.57364e-10
-4.76201e-05
-7.99951e-11
-4.54556e-05
1.20923e-10
-4.54557e-05
3.29807e-10
-4.44458e-05
5.44916e-10
-4.65135e-05
9.10979e-10
-5.71458e-05
1.31134e-09
-5.40578e-05
1.93616e-09
-5.00047e-05
2.48401e-09
-4.76251e-05
3.68392e-09
-4.65197e-05
4.91444e-09
-5.00117e-05
6.54454e-09
-5.0016e-05
9.91519e-09
-5.13044e-05
1.31351e-08
-5.71767e-05
1.94328e-08
-5.88709e-05
2.80206e-08
-4.76712e-05
3.03543e-08
-4.45106e-05
3.81272e-08
-4.66054e-05
5.96129e-08
-5.14218e-05
7.0324e-08
-5.28248e-05
1.06269e-07
-5.43202e-05
1.18109e-07
-5.59202e-05
1.89186e-07
-5.17272e-05
2.45702e-07
-5.18635e-05
2.65026e-07
-5.48377e-05
4.18112e-07
-5.98642e-05
5.7341e-07
-4.96927e-05
6.38897e-07
-4.39505e-05
7.06044e-07
-5.14163e-05
7.79205e-07
-5.59483e-05
-5.18269e-08
-4.58361e-05
-3.01486e-06
-3.32557e-05
-3.06999e-06
-2.73558e-05
-2.08699e-06
-2.92888e-05
-1.39423e-06
-3.34318e-05
-1.57261e-06
-2.63454e-05
-1.09735e-06
-2.31717e-05
-8.59155e-07
-2.71395e-05
-8.25085e-07
-2.44735e-05
-9.29532e-07
-2.31796e-05
-5.93866e-07
-2.33055e-05
-7.5068e-07
-2.11211e-05
-6.15668e-07
-2.1133e-05
-7.67567e-07
-2.13145e-05
-6.34372e-07
-2.40526e-05
-6.88363e-07
-2.32244e-05
-6.49908e-07
-2.25621e-05
-6.6e-07
-2.17347e-05
-5.57818e-07
-1.73479e-05
-6.21027e-07
-1.33734e-05
-4.50841e-07
-1.33107e-05
-4.31923e-07
-1.33242e-05
-4.81442e-07
-1.2995e-05
-4.37938e-07
-1.33185e-05
-5.07308e-07
-1.49412e-05
-4.86501e-07
-1.3281e-05
-6.09202e-07
-1.20692e-05
-4.091e-07
-1.33476e-05
-4.80188e-07
-1.16171e-05
-4.93202e-07
-9.15693e-06
-4.05497e-07
-7.53615e-06
-3.61938e-07
-8.03909e-06
-3.22674e-07
-8.64407e-06
-3.72262e-07
-7.4835e-06
-3.44196e-07
-7.57289e-06
-3.49056e-07
-7.03356e-06
-3.48153e-07
-5.03673e-06
-2.97174e-07
-4.2092e-06
-2.5356e-07
-4.4347e-06
-2.47404e-07
-3.78334e-06
-2.39772e-07
-2.79964e-06
-1.88871e-07
-2.06005e-06
-2.03573e-07
-7.59003e-07
-1.07349e-07
-9.56579e-08
-5.10277e-05
-1.54905e-06
-6.35396e-05
-1.40128e-06
-5.95775e-05
-1.15262e-06
-5.60912e-05
-6.40402e-07
-5.16493e-05
-5.03154e-07
-4.67575e-05
-3.77148e-07
-4.56313e-05
-2.3811e-07
-5.01427e-05
-1.82473e-07
-6.26308e-05
-1.55793e-07
-5.56408e-05
-1.24407e-07
-5.41148e-05
-8.34893e-08
-5.56013e-05
-5.79102e-08
-5.00302e-05
-3.9298e-08
-5.4078e-05
-2.68107e-08
-6.25203e-05
-2.33416e-08
-5.12943e-05
-1.91565e-08
-4.16739e-05
-1.1861e-08
-4.34838e-05
-8.67378e-09
-4.87851e-05
-5.61569e-09
-5.71469e-05
-4.73924e-09
-5.12847e-05
-4.08501e-09
-4.76209e-05
-2.18944e-09
-5.12836e-05
-1.85521e-09
-4.76202e-05
-1.09446e-09
-5.26326e-05
-7.23091e-10
-5.71439e-05
-4.77323e-10
-5.00008e-05
-1.1002e-10
-5.00009e-05
1.89053e-10
-4.762e-05
4.76818e-10
-5.12833e-05
7.02396e-10
-5.40558e-05
1.3204e-09
-4.65136e-05
1.6052e-09
-4.76217e-05
2.73877e-09
-5.12859e-05
3.18869e-09
-5.71486e-05
5.51165e-09
-5.55632e-05
7.7712e-09
-5.5566e-05
8.20625e-09
-6.06215e-05
1.36856e-08
-6.25217e-05
1.63765e-08
-6.45467e-05
2.94819e-08
-5.26656e-05
3.18537e-08
-4.88236e-05
3.66451e-08
-5.72117e-05
6.00555e-08
-5.56468e-05
9.05974e-08
-5.01118e-05
1.03528e-07
-4.66529e-05
1.5822e-07
-4.67031e-05
1.5985e-07
-5.58637e-05
2.41794e-07
-5.03702e-05
3.69427e-07
-5.17804e-05
4.00615e-07
-6.53131e-05
6.22001e-07
-5.34049e-05
6.74341e-07
-4.61328e-05
6.50271e-07
-4.8173e-05
5.01501e-07
-5.09499e-05
-2.03762e-07
-4.56697e-05
-1.28443e-06
-4.0286e-05
-2.28538e-06
-3.8163e-05
-2.47064e-06
-3.16374e-05
-1.97904e-06
-3.10979e-05
-1.51803e-06
-3.08884e-05
-1.43055e-06
-2.74357e-05
-9.87304e-07
-2.85622e-05
-9.59665e-07
-2.744e-05
-8.27237e-07
-2.27371e-05
-8.49852e-07
-1.97454e-05
-6.74292e-07
-2.18555e-05
-6.27235e-07
-2.4958e-05
-7.54012e-07
-2.49993e-05
-6.83101e-07
-2.05075e-05
-6.71374e-07
-1.78373e-05
-5.93062e-07
-1.76138e-05
-5.23314e-07
-1.58663e-05
-5.7244e-07
-1.58347e-05
-4.45288e-07
-1.7821e-05
-5.20708e-07
-1.72038e-05
-5.43441e-07
-1.74443e-05
-4.80514e-07
-1.60018e-05
-5.59777e-07
-1.55992e-05
-4.32906e-07
-1.5611e-05
-5.67019e-07
-1.43908e-05
-4.46582e-07
-1.2549e-05
-4.87982e-07
-1.01962e-05
-3.59289e-07
-1.13615e-05
-3.59404e-07
-1.12294e-05
-4.67978e-07
-1.04885e-05
-3.51551e-07
-9.53168e-06
-4.0857e-07
-7.46523e-06
-3.10373e-07
-6.99035e-06
-2.79618e-07
-7.21283e-06
-3.00433e-07
-6.54508e-06
-3.08602e-07
-5.42345e-06
-2.6337e-07
-5.0322e-06
-2.53029e-07
-4.21959e-06
-2.23211e-07
-3.25386e-06
-1.8519e-07
-3.02174e-06
-1.68964e-07
-3.22692e-06
-2.1413e-07
-2.01718e-06
-1.74395e-07
-8.04078e-07
-9.40381e-08
-9.48879e-08
-5.05849e-05
-1.94257e-06
-5.61029e-05
-1.25895e-06
-5.03912e-05
-1.20412e-06
-4.47113e-05
-6.63866e-07
-5.28693e-05
-4.91264e-07
-5.14543e-05
-4.26843e-07
-4.77372e-05
-2.91221e-07
-5.27277e-05
-2.13661e-07
-5.41266e-05
-1.9348e-07
-6.06657e-05
-1.205e-07
-5.40931e-05
-1.10335e-07
-4.65362e-05
-6.63043e-08
-4.44617e-05
-4.20811e-08
-4.54675e-05
-2.88874e-08
-5.26426e-05
-2.47607e-08
-6.06153e-05
-1.8578e-08
-6.66742e-05
-1.59935e-08
-5.40585e-05
-1.32554e-08
-4.87835e-05
-7.64391e-09
-5.71455e-05
-5.88075e-09
-5.55574e-05
-3.84173e-09
-5.40554e-05
-2.51531e-09
-5.12831e-05
-2.12194e-09
-4.87813e-05
-1.22809e-09
-5.40548e-05
-8.10461e-10
-5.12826e-05
-5.01994e-10
-5.40547e-05
-1.17496e-10
-5.40547e-05
2.05721e-10
-4.4445e-05
6.06245e-10
-4.3479e-05
8.26081e-10
-4.34792e-05
1.40513e-09
-5.12834e-05
1.84722e-09
-5.12839e-05
3.22238e-09
-5.00024e-05
4.12805e-09
-5.88274e-05
6.88239e-09
-4.76233e-05
7.98041e-09
-4.54601e-05
9.45807e-09
-4.54621e-05
1.38398e-08
-5.00113e-05
1.7625e-08
-5.1298e-05
2.70327e-08
-4.25713e-05
3.87604e-08
-4.65388e-05
4.5548e-08
-5.40976e-05
6.98198e-08
-5.26901e-05
9.71665e-08
-5.72307e-05
1.21776e-07
-5.27437e-05
2.16925e-07
-4.66492e-05
2.14429e-07
-5.28475e-05
2.78204e-07
-5.91572e-05
3.92509e-07
-6.10775e-05
5.46964e-07
-5.61392e-05
6.85286e-07
-5.6323e-05
8.63444e-07
-5.65167e-05
8.07647e-07
-5.8423e-05
7.01941e-07
-5.38678e-05
-8.1671e-07
-4.08353e-05
-2.46478e-06
-3.69361e-05
-2.47457e-06
-3.73628e-05
-2.32878e-06
-3.76496e-05
-2.0306e-06
-3.27986e-05
-1.68861e-06
-2.50791e-05
-1.21015e-06
-2.29532e-05
-9.50127e-07
-2.24245e-05
-8.25437e-07
-2.40318e-05
-8.57653e-07
-2.91905e-05
-8.6533e-07
-2.59378e-05
-8.21743e-07
-2.41629e-05
-6.94621e-07
-2.17745e-05
-8.27701e-07
-1.84442e-05
-6.0266e-07
-2.00711e-05
-5.74967e-07
-1.81123e-05
-6.18741e-07
-1.76745e-05
-5.14636e-07
-1.72652e-05
-6.77581e-07
-1.49695e-05
-5.24448e-07
-1.66204e-05
-5.08045e-07
-1.60923e-05
-6.22137e-07
-1.5364e-05
-5.55667e-07
-1.44565e-05
-4.94482e-07
-1.37071e-05
-5.12237e-07
-1.35399e-05
-4.85885e-07
-1.19129e-05
-4.35754e-07
-1.10537e-05
-4.51209e-07
-9.95688e-06
-4.38415e-07
-1.09732e-05
-3.73511e-07
-1.15189e-05
-5.23637e-07
-1.03768e-05
-3.97755e-07
-1.07451e-05
-4.42018e-07
-9.19429e-06
-3.83843e-07
-8.67999e-06
-3.71232e-07
-8.35935e-06
-3.87327e-07
-7.39282e-06
-3.3578e-07
-6.5748e-06
-3.16315e-07
-4.90624e-06
-2.69196e-07
-3.89222e-06
-2.10965e-07
-3.69006e-06
-2.2676e-07
-3.44981e-06
-2.35976e-07
-2.83897e-06
-2.42873e-07
-1.87815e-06
-1.77577e-07
-1.19443e-06
-1.58288e-07
-9.61423e-08
-5.14768e-05
-2.01169e-06
-4.89393e-05
-1.20045e-06
-5.01312e-05
-1.14066e-06
-4.26397e-05
-7.55148e-07
-4.26188e-05
-5.75238e-07
-4.76739e-05
-4.35664e-07
-4.76597e-05
-3.20691e-07
-5.26647e-05
-2.00458e-07
-5.40791e-05
-2.09422e-07
-5.12995e-05
-1.33305e-07
-5.88382e-05
-9.51636e-08
-4.87894e-05
-7.34732e-08
-4.16723e-05
-4.74029e-08
-4.44488e-05
-3.5558e-08
-4.6515e-05
-2.80895e-08
-4.87831e-05
-2.05618e-08
-5.88259e-05
-1.54529e-08
-6.4518e-05
-1.34878e-08
-6.06074e-05
-9.54419e-09
-4.87813e-05
-6.18334e-09
-4.16672e-05
-3.43778e-09
-4.5455e-05
-2.90919e-09
-4.76194e-05
-2.01343e-09
-4.34785e-05
-1.53554e-09
-4.54548e-05
-7.96547e-10
-4.65118e-05
-5.72989e-10
-4.25534e-05
-1.26319e-10
-5.00002e-05
2.11194e-10
-5.12823e-05
5.89918e-10
-4.65119e-05
1.04728e-09
-4.76194e-05
1.4783e-09
-4.5455e-05
2.18074e-09
-5.26323e-05
2.91822e-09
-6.06071e-05
4.45741e-09
-5.26328e-05
7.47528e-09
-4.76206e-05
8.41001e-09
-4.65137e-05
1.15095e-08
-4.65144e-05
1.39469e-08
-4.44481e-05
1.90564e-08
-5.12879e-05
2.93657e-08
-5.7152e-05
4.46819e-08
-5.00113e-05
5.61815e-08
-5.0016e-05
8.09258e-08
-4.8803e-05
9.45998e-08
-5.40903e-05
1.35328e-07
-5.71994e-05
2.04503e-07
-4.76895e-05
2.93634e-07
-4.45437e-05
3.54549e-07
-4.66699e-05
4.87579e-07
-4.90351e-05
6.63057e-07
-5.6004e-05
8.17368e-07
-5.1937e-05
1.23808e-06
-5.37614e-05
1.10332e-06
-6.95725e-05
1.6142e-06
-5.98603e-05
-9.8692e-07
-4.46523e-05
-5.14134e-06
-3.86487e-05
-3.50316e-06
-3.85678e-05
-2.46119e-06
-3.51724e-05
-2.14789e-06
-3.14707e-05
-1.33958e-06
-3.165e-05
-1.32628e-06
-2.65114e-05
-1.00484e-06
-2.68472e-05
-8.19083e-07
-2.85015e-05
-8.70736e-07
-2.27422e-05
-7.5995e-07
-2.17816e-05
-6.34786e-07
-2.45132e-05
-6.24198e-07
-2.3933e-05
-8.24857e-07
-1.88483e-05
-5.74406e-07
-1.72368e-05
-5.14076e-07
-1.77863e-05
-5.9545e-07
-1.98777e-05
-5.22378e-07
-2.2381e-05
-5.94447e-07
-1.87747e-05
-6.29351e-07
-1.84194e-05
-5.26852e-07
-2.1541e-05
-5.93053e-07
-1.60916e-05
-5.82853e-07
-1.48024e-05
-4.39634e-07
-1.44464e-05
-5.43341e-07
-1.13635e-05
-3.8723e-07
-1.17362e-05
-3.7487e-07
-1.30093e-05
-4.2221e-07
-1.12991e-05
-4.52742e-07
-1.05234e-05
-3.78187e-07
-1.06185e-05
-4.42722e-07
-9.21824e-06
-3.94331e-07
-8.27692e-06
-3.81645e-07
-7.74478e-06
-3.09835e-07
-7.94938e-06
-3.26301e-07
-7.15117e-06
-3.12896e-07
-6.20411e-06
-3.10146e-07
-5.3041e-06
-2.90673e-07
-4.61079e-06
-2.49014e-07
-4.52649e-06
-2.63008e-07
-4.82255e-06
-2.59549e-07
-4.19607e-06
-3.00739e-07
-2.78384e-06
-2.65919e-07
-1.71663e-06
-1.77785e-07
-1.10881e-06
-1.6212e-07
-1.08766e-07
-4.74383e-05
-1.84033e-06
-4.74641e-05
-1.46311e-06
-5.11477e-05
-1.13723e-06
-5.54427e-05
-7.44826e-07
-5.8733e-05
-6.27726e-07
-5.25711e-05
-4.38076e-07
-4.44067e-05
-2.77984e-07
-4.75892e-05
-1.90931e-07
-5.87965e-05
-1.99343e-07
-5.26138e-05
-1.37715e-07
-4.76073e-05
-9.05312e-08
-5.26221e-05
-5.87696e-08
-5.71353e-05
-4.85551e-08
-5.88179e-05
-3.55537e-08
-6.06018e-05
-2.53796e-08
-5.88205e-05
-1.90543e-08
-5.88213e-05
-1.51049e-08
-6.24983e-05
-9.94147e-09
-5.71417e-05
-8.80197e-09
-4.76184e-05
-5.16351e-09
-5.12815e-05
-3.84165e-09
-5.40537e-05
-3.07417e-09
-5.55553e-05
-1.96271e-09
-5.40538e-05
-1.54377e-09
-5.40539e-05
-8.93472e-10
-5.71427e-05
-6.35668e-10
-5.40539e-05
-1.2904e-10
-4.87804e-05
2.3548e-10
-4.99998e-05
5.75715e-10
-5.26314e-05
1.07956e-09
-4.87802e-05
1.34282e-09
-4.99996e-05
2.43134e-09
-4.5454e-05
2.91357e-09
-5.26308e-05
4.03757e-09
-6.06048e-05
6.70256e-09
-5.5554e-05
7.62554e-09
-4.99981e-05
1.01954e-08
-4.44421e-05
1.3319e-08
-5.26278e-05
2.1102e-08
-5.71374e-05
3.22759e-08
-5.2625e-05
4.2926e-08
-5.88139e-05
5.71741e-08
-5.26206e-05
7.62767e-08
-4.87679e-05
8.42169e-08
-5.12665e-05
1.47898e-07
-5.71245e-05
1.74453e-07
-6.66489e-05
2.88375e-07
-6.66633e-05
3.5653e-07
-6.66993e-05
5.46239e-07
-6.07045e-05
6.87951e-07
-5.90466e-05
1.04105e-06
-5.30398e-05
1.53367e-06
-4.72613e-05
1.7716e-06
-5.1902e-05
1.56441e-06
-5.54054e-05
-3.85146e-06
-5.15857e-05
-5.26777e-06
-4.14915e-05
-3.58657e-06
-4.03977e-05
-2.1112e-06
-3.47429e-05
-1.84805e-06
-3.0491e-05
-1.10347e-06
-3.04808e-05
-1.26982e-06
-2.64407e-05
-8.24625e-07
-2.42909e-05
-7.98883e-07
-2.29671e-05
-5.94266e-07
-2.34055e-05
-7.44836e-07
-2.04495e-05
-5.91626e-07
-2.31992e-05
-5.81486e-07
-2.22192e-05
-6.93665e-07
-1.79557e-05
-5.26792e-07
-2.09193e-05
-5.24796e-07
-1.99301e-05
-5.78135e-07
-1.61661e-05
-5.29851e-07
-1.69985e-05
-4.99396e-07
-1.82052e-05
-5.29227e-07
-1.66866e-05
-4.83723e-07
-1.56205e-05
-4.80805e-07
-1.58091e-05
-4.97426e-07
-1.56056e-05
-4.39289e-07
-1.3591e-05
-4.45272e-07
-1.17706e-05
-3.97701e-07
-1.16779e-05
-4.05559e-07
-1.22362e-05
-4.21881e-07
-1.29571e-05
-4.08422e-07
-1.27477e-05
-4.69313e-07
-1.24318e-05
-4.0629e-07
-1.18729e-05
-4.15231e-07
-9.29934e-06
-3.59494e-07
-7.47779e-06
-2.98769e-07
-6.85166e-06
-2.57348e-07
-7.16049e-06
-2.64058e-07
-7.81675e-06
-2.9643e-07
-6.49896e-06
-3.19991e-07
-5.52632e-06
-2.42041e-07
-4.77707e-06
-2.35263e-07
-4.07788e-06
-1.95092e-07
-4.58726e-06
-2.61877e-07
-3.13567e-06
-2.02396e-07
-1.77559e-06
-1.23839e-07
-9.88638e-07
-9.21565e-08
-5.00657e-08
-5.98973e-05
-1.84212e-06
-6.38806e-05
-1.68154e-06
-5.22199e-05
-1.05382e-06
-4.84877e-05
-6.89663e-07
-4.97743e-05
-4.90575e-07
-4.5302e-05
-3.5829e-07
-4.33705e-05
-2.68636e-07
-5.25356e-05
-1.63061e-07
-5.87447e-05
-1.47593e-07
-5.5501e-05
-1.00133e-07
-4.87454e-05
-7.51403e-08
-4.4421e-05
-5.23948e-08
-4.64937e-05
-4.13131e-08
-4.44319e-05
-2.68105e-08
-4.34693e-05
-1.87746e-08
-4.87731e-05
-1.43672e-08
-4.76138e-05
-1.28492e-08
-4.87766e-05
-7.86677e-09
-5.1279e-05
-7.48739e-09
-5.12798e-05
-4.73906e-09
-5.40523e-05
-3.43984e-09
-5.12808e-05
-2.29608e-09
-5.12811e-05
-1.55304e-09
-5.40533e-05
-1.04454e-09
-6.24993e-05
-9.26203e-10
-5.71423e-05
-5.40624e-10
-5.26311e-05
-1.25331e-10
-6.06055e-05
2.00479e-10
-5.71422e-05
5.45966e-10
-4.76184e-05
8.70401e-10
-5.26306e-05
1.25718e-09
-5.55542e-05
1.95774e-09
-5.26298e-05
2.42153e-09
-5.40516e-05
4.14646e-09
-4.7616e-05
5.71033e-09
-4.25495e-05
6.66261e-09
-4.34731e-05
7.77172e-09
-5.40454e-05
1.11199e-08
-5.88107e-05
1.80423e-08
-5.8806e-05
2.61103e-08
-6.05816e-05
3.68606e-08
-5.12541e-05
5.21622e-08
-4.44118e-05
5.42971e-08
-4.87325e-05
8.03843e-08
-5.12151e-05
1.17078e-07
-4.75379e-05
1.41924e-07
-4.53558e-05
2.0812e-07
-4.53338e-05
3.15471e-07
-4.6371e-05
4.17866e-07
-5.11281e-05
6.89066e-07
-6.4369e-05
9.95577e-07
-6.65767e-05
1.495e-06
-5.26709e-05
1.48905e-06
-4.99066e-05
-1.02195e-07
-4.93321e-05
-4.20389e-06
-3.84597e-05
-3.62861e-06
-3.33547e-05
-2.7527e-06
-2.79084e-05
-1.7895e-06
-2.9987e-05
-1.7028e-06
-3.25657e-05
-1.30329e-06
-3.2534e-05
-1.26005e-06
-2.77704e-05
-1.03384e-06
-2.40758e-05
-7.73087e-07
-2.54532e-05
-7.50561e-07
-2.78996e-05
-7.39086e-07
-2.6113e-05
-7.10235e-07
-2.40141e-05
-7.83112e-07
-2.18962e-05
-6.07421e-07
-2.12355e-05
-5.93182e-07
-1.81036e-05
-5.75178e-07
-1.9594e-05
-5.07364e-07
-2.20895e-05
-6.47184e-07
-1.80455e-05
-5.48704e-07
-1.50291e-05
-4.58721e-07
-1.46675e-05
-4.71268e-07
-1.63787e-05
-4.58537e-07
-1.43484e-05
-5.63871e-07
-1.26802e-05
-4.27809e-07
-1.40136e-05
-4.82218e-07
-1.54322e-05
-5.09189e-07
-1.52862e-05
-4.57661e-07
-1.23962e-05
-5.27018e-07
-1.16049e-05
-3.69223e-07
-1.14455e-05
-4.15914e-07
-9.7069e-06
-3.99362e-07
-9.09556e-06
-3.45313e-07
-9.3496e-06
-3.4251e-07
-8.85797e-06
-3.84497e-07
-7.6878e-06
-3.27545e-07
-7.29393e-06
-3.46598e-07
-7.322e-06
-3.12366e-07
-7.46724e-06
-3.26025e-07
-5.38816e-06
-2.95648e-07
-4.58886e-06
-2.356e-07
-5.1758e-06
-2.92603e-07
-3.63119e-06
-2.99318e-07
-2.3516e-06
-1.71461e-07
-1.88749e-06
-1.7144e-07
-8.72039e-07
-1.23264e-07
-1.11411e-07
-5.76147e-05
-1.71494e-06
-5.78452e-05
-1.21736e-06
-5.48436e-05
-7.3129e-07
-5.21243e-05
-6.41967e-07
-4.9642e-05
-3.41057e-07
-5.68409e-05
-2.58041e-07
-4.98057e-05
-2.32743e-07
-4.24318e-05
-1.30149e-07
-4.43515e-05
-1.02163e-07
-4.43764e-05
-8.07461e-08
-4.87258e-05
-4.75152e-08
-5.55099e-05
-4.44345e-08
-4.99699e-05
-3.34558e-08
-4.44249e-05
-2.14304e-08
-4.54399e-05
-1.53054e-08
-5.127e-05
-1.20871e-08
-5.40447e-05
-8.84435e-09
-5.71356e-05
-5.71556e-09
-6.24942e-05
-4.98653e-09
-5.40504e-05
-3.44305e-09
-4.76167e-05
-2.63794e-09
-4.44428e-05
-1.66812e-09
-4.16655e-05
-1.12827e-09
-5.12809e-05
-7.25834e-10
-6.66655e-05
-5.81895e-10
-6.66656e-05
-3.56968e-10
-6.24991e-05
-9.94681e-11
-5.40532e-05
1.41748e-10
-5.26306e-05
3.15684e-10
-5.55543e-05
5.724e-10
-5.12805e-05
1.04436e-09
-4.65098e-05
1.4627e-09
-5.26288e-05
1.89602e-09
-6.45114e-05
3.10674e-09
-6.24938e-05
4.70776e-09
-4.99932e-05
5.54135e-09
-4.34702e-05
5.91063e-09
-4.34673e-05
8.89414e-09
-4.99827e-05
1.06421e-08
-5.40285e-05
1.85616e-08
-5.55197e-05
2.14676e-08
-4.9956e-05
3.83026e-08
-4.75618e-05
4.09449e-08
-4.87006e-05
6.95579e-08
-4.24584e-05
8.98322e-08
-4.15409e-05
1.12423e-07
-4.85824e-05
1.72513e-07
-4.85179e-05
2.57229e-07
-5.09271e-05
3.92492e-07
-5.50929e-05
6.31712e-07
-5.08446e-05
1.01195e-06
-4.85277e-05
1.50743e-06
-4.80723e-05
1.54685e-06
-5.40373e-05
-1.08303e-06
-4.6323e-05
-4.84129e-06
-3.43439e-05
-3.23315e-06
-3.2641e-05
-1.83192e-06
-4.18159e-05
-2.17776e-06
-3.31225e-05
-1.5755e-06
-2.70192e-05
-1.03277e-06
-2.85884e-05
-9.06136e-07
-2.5024e-05
-9.39695e-07
-2.41795e-05
-6.75236e-07
-2.36801e-05
-8.071e-07
-2.14174e-05
-5.73887e-07
-2.65288e-05
-6.955e-07
-2.44408e-05
-7.72791e-07
-1.95936e-05
-5.48637e-07
-1.92862e-05
-5.31942e-07
-1.96539e-05
-5.38452e-07
-1.89446e-05
-5.30007e-07
-1.78835e-05
-5.34182e-07
-1.5299e-05
-4.82972e-07
-1.63881e-05
-4.16958e-07
-1.64352e-05
-5.41364e-07
-1.59792e-05
-4.43285e-07
-1.85137e-05
-5.1887e-07
-1.7783e-05
-5.34305e-07
-1.72218e-05
-5.61311e-07
-1.29197e-05
-4.67294e-07
-1.27046e-05
-3.51865e-07
-1.24055e-05
-4.81836e-07
-9.59058e-06
-3.39427e-07
-1.05834e-05
-3.56615e-07
-1.01754e-05
-3.99085e-07
-8.72935e-06
-3.2245e-07
-9.50263e-06
-3.31702e-07
-1.0349e-05
-3.50736e-07
-1.04249e-05
-4.10182e-07
-8.64625e-06
-3.93566e-07
-6.38329e-06
-2.98262e-07
-5.48925e-06
-2.43064e-07
-5.56389e-06
-2.69109e-07
-5.364e-06
-2.82539e-07
-5.12228e-06
-2.44536e-07
-3.84213e-06
-2.36197e-07
-2.40596e-06
-1.52502e-07
-1.87268e-06
-1.38706e-07
-1.22303e-06
-1.30225e-07
-7.17495e-08
-5.10014e-05
-1.17949e-06
-4.76434e-05
-7.37286e-07
-5.46017e-05
-4.35186e-07
-5.33742e-05
-2.9889e-07
-4.50363e-05
-2.13949e-07
-5.09368e-05
-1.44647e-07
-5.52818e-05
-1.09976e-07
-5.53552e-05
-6.87154e-08
-6.2335e-05
-5.82029e-08
-5.25298e-05
-4.13885e-08
-4.87115e-05
-2.94858e-08
-5.70837e-05
-2.10333e-08
-5.70995e-05
-1.62039e-08
-5.55247e-05
-1.21816e-08
-5.71196e-05
-8.45967e-09
-5.4038e-05
-5.88973e-09
-4.54447e-05
-4.10905e-09
-4.54473e-05
-3.23011e-09
-4.76135e-05
-2.69633e-09
-5.40494e-05
-1.67754e-09
-5.71392e-05
-1.56003e-09
-5.12796e-05
-8.76843e-10
-4.87788e-05
-6.07158e-10
-4.54533e-05
-4.17807e-10
-4.99989e-05
-2.75948e-10
-5.71417e-05
-1.50928e-10
-5.55545e-05
-5.21394e-11
-4.65107e-05
6.55545e-11
-4.16657e-05
1.58864e-10
-4.87791e-05
2.69045e-10
-6.24976e-05
5.65437e-10
-6.24968e-05
8.93402e-10
-5.88195e-05
1.0804e-09
-6.24942e-05
1.45764e-09
-6.05984e-05
1.90539e-09
-4.99914e-05
2.61727e-09
-4.99883e-05
3.68513e-09
-4.76038e-05
4.92535e-09
-4.54346e-05
5.99231e-09
-4.54272e-05
9.29193e-09
-4.75798e-05
1.13434e-08
-5.25721e-05
1.72371e-08
-5.25498e-05
2.22453e-08
-5.86978e-05
3.92691e-08
-5.53917e-05
6.06451e-08
-5.38334e-05
6.09414e-08
-4.97166e-05
1.08309e-07
-5.22162e-05
1.243e-07
-5.34619e-05
2.41583e-07
-5.3251e-05
3.46032e-07
-5.77527e-05
9.00977e-07
-5.06428e-05
1.72757e-06
-4.63622e-05
2.02145e-06
-4.59689e-05
-3.1677e-06
-5.1134e-05
-3.84897e-06
-3.53258e-05
-2.18828e-06
-3.19891e-05
-1.15754e-06
-3.34507e-05
-1.3656e-06
-2.46162e-05
-8.61323e-07
-2.29796e-05
-6.80806e-07
-2.52739e-05
-6.91364e-07
-2.65129e-05
-7.25076e-07
-2.4795e-05
-6.21569e-07
-2.32959e-05
-5.67282e-07
-2.36291e-05
-5.33989e-07
-2.57766e-05
-5.58838e-07
-2.12746e-05
-5.61194e-07
-1.8852e-05
-4.03975e-07
-1.87834e-05
-4.69487e-07
-1.76012e-05
-3.97106e-07
-1.78777e-05
-4.16792e-07
-1.72597e-05
-4.06143e-07
-1.62485e-05
-3.8505e-07
-1.60106e-05
-3.77757e-07
-1.63108e-05
-4.18518e-07
-1.42237e-05
-3.78434e-07
-1.41786e-05
-3.37144e-07
-1.62e-05
-4.16574e-07
-1.39916e-05
-3.99807e-07
-1.14929e-05
-3.22274e-07
-1.13774e-05
-3.1469e-07
-1.17599e-05
-3.362e-07
-1.17212e-05
-3.09676e-07
-1.12444e-05
-3.51554e-07
-9.78303e-06
-3.09201e-07
-8.96276e-06
-2.7804e-07
-8.15278e-06
-2.83914e-07
-8.77347e-06
-2.79723e-07
-1.00201e-05
-3.25687e-07
-8.30731e-06
-3.22462e-07
-6.5729e-06
-2.52711e-07
-6.21153e-06
-2.43112e-07
-6.16598e-06
-2.61989e-07
-4.59471e-06
-2.31061e-07
-3.30328e-06
-1.81516e-07
-3.2462e-06
-1.75882e-07
-3.41778e-06
-1.99291e-07
-2.30398e-06
-1.63606e-07
-1.09223e-06
-9.54171e-08
-4.6862e-08
-4.67267e-05
-5.55164e-05
-4.7806e-05
-5.18791e-05
-6.18538e-05
-5.36476e-05
-4.52052e-05
-4.52724e-05
-4.63753e-05
-5.11721e-05
-5.2549e-05
-4.64582e-05
-4.9958e-05
-4.99692e-05
-4.44244e-05
-4.25392e-05
-5.12697e-05
-6.45047e-05
-5.88159e-05
-5.55503e-05
-5.26279e-05
-4.54522e-05
-4.65098e-05
-5.12805e-05
-4.76179e-05
-5.26304e-05
-5.40529e-05
-4.54535e-05
-4.44433e-05
-4.99984e-05
-6.06035e-05
-5.71397e-05
-5.12782e-05
-4.54499e-05
-4.44382e-05
-5.40438e-05
-5.404e-05
-4.87631e-05
-5.1257e-05
-5.12477e-05
-4.75753e-05
-4.43883e-05
-5.11927e-05
-6.43607e-05
-5.11103e-05
-4.62935e-05
-4.62028e-05
-4.21463e-05
-4.2863e-05
-4.77104e-05
-5.20741e-05
-4.60045e-05
-4.61792e-05
-4.57977e-05
-3.38628e-05
-3.11954e-05
-3.17178e-05
-2.61974e-05
-2.12611e-05
-2.39452e-05
-2.71573e-05
-2.09636e-05
-1.72765e-05
-1.83532e-05
-2.03537e-05
-1.91568e-05
-1.72126e-05
-1.72967e-05
-1.73825e-05
-1.50896e-05
-1.45438e-05
-1.40119e-05
-1.52787e-05
-1.78338e-05
-1.42313e-05
-1.11486e-05
-1.1374e-05
-1.15224e-05
-1.02767e-05
-1.12152e-05
-1.19432e-05
-9.65495e-06
-9.82503e-06
-1.0576e-05
-8.81361e-06
-8.55061e-06
-9.57543e-06
-7.59973e-06
-6.61005e-06
-6.3138e-06
-6.36226e-06
-6.57156e-06
-4.90336e-06
-4.3366e-06
-4.02849e-06
-2.76361e-06
-2.32814e-06
-1.69485e-06
-9.30701e-07
)
;

boundaryField
{
    inlet
    {
        type            fixedValue;
        value           uniform 0;
    }
    outlet
    {
        type            calculated;
        value           nonuniform List<scalar> 10(5.92708e-05 4.94254e-05 4.44742e-05 4.82183e-05 6.69358e-05 4.97983e-05 5.48566e-05 5.14261e-05 5.34483e-05 3.88803e-05);
    }
    walls
    {
        type            fixedValue;
        value           uniform 0;
    }
}


// ************************************************************************* //
