/*--------------------------------*- C++ -*----------------------------------*\
| =========                 |                                                 |
| \\      /  F ield         | foam-extend: Open Source CFD                    |
|  \\    /   O peration     | Version:     5.0                                |
|   \\  /    A nd           | Web:         http://www.foam-extend.org         |
|    \\/     M anipulation  |                                                 |
\*---------------------------------------------------------------------------*/
FoamFile
{
    version     2.0;
    format      ascii;
    class       volVectorField;
    location    "6000";
    object      U.gas;
}
// * * * * * * * * * * * * * * * * * * * * * * * * * * * * * * * * * * * * * //

dimensions      [0 1 -1 0 0 0 0];

internalField   nonuniform List<vector> 
1000
(
(0 0 0)
(0 0 0)
(0 0 0)
(0 0 0)
(0 0 0)
(0 0 0)
(0 0 0)
(0 0 0)
(0 0 0)
(0 0 0)
(0 0 0)
(0 0 0)
(0 0 0)
(0 0 0)
(0 0 0)
(0 0 0)
(0 0 0)
(0 0 0)
(0 0 0)
(0 0 0)
(0 0 0)
(0 0 0)
(0 0 0)
(0 0 0)
(0 0 0)
(0 0 0)
(0 0 0)
(0 0 0)
(0 0 0)
(0 0 0)
(0 0 0)
(0 0 0)
(0 0 0)
(0 0 0)
(0 0 0)
(0 0 0)
(0 0 0)
(0 0 0)
(0 0 0)
(0 0 0)
(0 0 0)
(0 0 0)
(0 0 0)
(0 0 0)
(0 0 0)
(0 0 0)
(0 0 0)
(0 0 0)
(0 0 0)
(0 0 0)
(0 0 0)
(0 2.68111e-54 0)
(0 1.2793e-23 -6.0746e-23)
(0 2.70596e-13 -1.90523e-09)
(0 -0.000211559 -0.00039772)
(0 -0.00110938 -4.49699e-05)
(0 -0.000614254 -0.000242688)
(0 -0.000449394 -8.23194e-05)
(0 -0.000443688 -2.53441e-05)
(0 -0.000468011 -8.03566e-06)
(0 -0.00051957 -1.65692e-06)
(0 -0.000550019 5.97994e-08)
(0 -0.000553928 5.65164e-07)
(0 -0.000531874 1.04819e-06)
(0 -0.00078043 1.87967e-06)
(0 -0.000491512 1.30769e-06)
(0 -0.000563235 1.81072e-06)
(0 -0.000593039 1.70616e-06)
(0 -0.00074182 2.16033e-06)
(0 -0.000791998 2.08379e-06)
(0 -0.000567529 1.87982e-06)
(0 -0.00079445 2.48981e-06)
(0 -0.000597676 2.23437e-06)
(0 -0.000544861 2.21082e-06)
(0 -0.000522631 2.36649e-06)
(0 -0.000502038 2.08655e-06)
(0 -0.000602391 2.31395e-06)
(0 -0.000524533 2.13518e-06)
(0 -0.000634369 2.35414e-06)
(0 -0.000574122 2.25292e-06)
(0 -0.000547907 2.20759e-06)
(0 -0.000633428 2.47699e-06)
(0 -0.000800201 2.34298e-06)
(0 -0.000545515 2.20092e-06)
(0 -0.00059868 2.52723e-06)
(0 -0.000597423 2.36204e-06)
(0 -0.000595387 2.04355e-06)
(0 -0.00059259 1.89143e-06)
(0 -0.0005898 2.29178e-06)
(0 -0.000534116 2.27167e-06)
(0 -0.000531416 2.40658e-06)
(0 -0.00048471 2.40624e-06)
(0 -0.000576529 1.99338e-06)
(0 -0.000712778 1.28145e-06)
(0 -0.000538211 1.57676e-06)
(0 -0.000587839 2.28491e-06)
(0 -0.000461139 2.27034e-06)
(0 -0.000544723 2.63475e-06)
(0 -0.000510124 1.23783e-06)
(0 -0.000580498 2.1477e-06)
(0 0 0)
(0 0 0)
(0 0 0)
(0 0 0)
(0 0 0)
(0 0 0)
(0 0 0)
(0 0 0)
(0 0 0)
(0 0 0)
(0 0 0)
(0 0 0)
(0 0 0)
(0 0 0)
(0 0 0)
(0 0 0)
(0 0 0)
(0 0 0)
(0 0 0)
(0 0 0)
(0 0 0)
(0 0 0)
(0 0 0)
(0 0 0)
(0 0 0)
(0 0 0)
(0 0 0)
(0 0 0)
(0 0 0)
(0 0 0)
(0 0 0)
(0 0 0)
(0 0 0)
(0 0 0)
(0 0 0)
(0 0 0)
(0 0 0)
(0 0 0)
(0 0 0)
(0 0 0)
(0 0 0)
(0 0 0)
(0 0 0)
(0 0 0)
(0 0 0)
(0 0 0)
(0 0 0)
(0 0 0)
(0 0 0)
(0 0 0)
(0 0 0)
(0 4.18814e-17 0)
(0 -2.00872e-06 -2.12776e-18)
(0 -0.0012278 3.14615e-10)
(0 -0.000941114 1.56309e-07)
(0 -0.000700444 2.48943e-06)
(0 -0.000742036 -2.03395e-05)
(0 -0.000643937 -3.86069e-05)
(0 -0.000599333 -2.34653e-05)
(0 -0.00058458 -1.08159e-05)
(0 -0.000867784 -6.37712e-06)
(0 -0.000767792 -2.27391e-06)
(0 -0.000599537 1.51355e-07)
(0 -0.000653679 1.3274e-06)
(0 -0.000910112 2.53993e-06)
(0 -0.000569027 2.14271e-06)
(0 -0.000904836 3.81842e-06)
(0 -0.000590095 2.93205e-06)
(0 -0.000795492 3.82957e-06)
(0 -0.00061447 2.92588e-06)
(0 -0.000896915 4.21788e-06)
(0 -0.000788817 3.68433e-06)
(0 -0.000890002 4.83282e-06)
(0 -0.000782207 4.64568e-06)
(0 -0.000882093 6.28647e-06)
(0 -0.000550838 4.43634e-06)
(0 -0.00054946 4.39772e-06)
(0 -0.00059764 4.9635e-06)
(0 -0.000595846 4.48382e-06)
(0 -0.000621855 4.9215e-06)
(0 -0.000683893 4.99983e-06)
(0 -0.00086081 5.95622e-06)
(0 -0.000584886 3.39037e-06)
(0 -0.000797628 5.36e-06)
(0 -0.000746088 5.84272e-06)
(0 -0.000663914 5.21038e-06)
(0 -0.00052337 4.43572e-06)
(0 -0.000520121 4.01512e-06)
(0 -0.000726956 5.37805e-06)
(0 -0.000645161 5.30228e-06)
(0 -0.000638843 5.59101e-06)
(0 -0.000799078 6.48422e-06)
(0 -0.000624261 4.17373e-06)
(0 -0.000510336 2.66482e-06)
(0 -0.000608307 3.27239e-06)
(0 -0.000757031 4.43073e-06)
(0 -0.000559484 5.29671e-06)
(0 -0.000730672 6.22573e-06)
(0 -0.000449679 2.78376e-06)
(0 -0.00065231 4.18019e-06)
(0 0 0)
(0 0 0)
(0 0 0)
(0 0 0)
(0 0 0)
(0 0 0)
(0 0 0)
(0 0 0)
(0 0 0)
(0 0 0)
(0 0 0)
(0 0 0)
(0 0 0)
(0 0 0)
(0 0 0)
(0 0 0)
(0 0 0)
(0 0 0)
(0 0 0)
(0 0 0)
(0 0 0)
(0 0 0)
(0 0 0)
(0 0 0)
(0 0 0)
(0 0 0)
(0 0 0)
(0 0 0)
(0 0 0)
(0 0 0)
(0 0 0)
(0 0 0)
(0 0 0)
(0 0 0)
(0 0 0)
(0 0 0)
(0 0 0)
(0 0 0)
(0 0 0)
(0 0 0)
(0 0 0)
(0 0 0)
(0 0 0)
(0 0 0)
(0 0 0)
(0 0 0)
(0 0 0)
(0 0 0)
(0 0 0)
(0 0 0)
(0 0 0)
(0 1.48292e-17 0)
(0 -1.52058e-06 -2.8897e-18)
(0 -0.00122112 6.51085e-10)
(0 -0.000929206 2.91791e-07)
(0 -0.000640904 2.66375e-06)
(0 -0.000612677 -9.1656e-06)
(0 -0.000719556 -2.29637e-05)
(0 -0.000707211 -1.81813e-05)
(0 -0.000622974 -1.00502e-05)
(0 -0.000854155 -9.89552e-06)
(0 -0.000653154 -4.54873e-06)
(0 -0.000758681 -1.96792e-06)
(0 -0.00075641 1.35528e-08)
(0 -0.000755043 1.47146e-06)
(0 -0.000567421 2.36964e-06)
(0 -0.000618151 2.54759e-06)
(0 -0.000753311 3.94937e-06)
(0 -0.000844537 3.62571e-06)
(0 -0.000792388 3.70965e-06)
(0 -0.000611715 2.91791e-06)
(0 -0.000639457 3.05799e-06)
(0 -0.000638351 3.69559e-06)
(0 -0.000558055 3.39839e-06)
(0 -0.000701906 4.82678e-06)
(0 -0.000737875 6.36737e-06)
(0 -0.000695847 6.15492e-06)
(0 -0.000821118 7.17443e-06)
(0 -0.000622949 5.12051e-06)
(0 -0.000865256 6.84973e-06)
(0 -0.000645793 4.55831e-06)
(0 -0.000801382 5.17951e-06)
(0 -0.000532437 3.65858e-06)
(0 -0.00057687 3.81456e-06)
(0 -0.000740825 5.92218e-06)
(0 -0.000596442 4.99886e-06)
(0 -0.000729963 7.20465e-06)
(0 -0.00053611 5.33425e-06)
(0 -0.000509752 4.59177e-06)
(0 -0.000551233 5.31105e-06)
(0 -0.000632035 5.93108e-06)
(0 -0.000518152 4.43013e-06)
(0 -0.000536154 4.28448e-06)
(0 -0.000554843 4.09223e-06)
(0 -0.000479921 3.53927e-06)
(0 -0.000473794 3.4231e-06)
(0 -0.000697388 5.91092e-06)
(0 -0.000685332 4.2004e-06)
(0 -0.000449418 4.01174e-06)
(0 -0.000614758 3.15917e-06)
(0 0 0)
(0 0 0)
(0 0 0)
(0 0 0)
(0 0 0)
(0 0 0)
(0 0 0)
(0 0 0)
(0 0 0)
(0 0 0)
(0 0 0)
(0 0 0)
(0 0 0)
(0 0 0)
(0 0 0)
(0 0 0)
(0 0 0)
(0 0 0)
(0 0 0)
(0 0 0)
(0 0 0)
(0 0 0)
(0 0 0)
(0 0 0)
(0 0 0)
(0 0 0)
(0 0 0)
(0 0 0)
(0 0 0)
(0 0 0)
(0 0 0)
(0 0 0)
(0 0 0)
(0 0 0)
(0 0 0)
(0 0 0)
(0 0 0)
(0 0 0)
(0 0 0)
(0 0 0)
(0 0 0)
(0 0 0)
(0 0 0)
(0 0 0)
(0 0 0)
(0 0 0)
(0 0 0)
(0 0 0)
(0 0 0)
(0 0 0)
(0 0 0)
(0 6.06686e-16 0)
(0 -7.11831e-06 -3.41125e-17)
(0 -0.00120124 7.8026e-10)
(0 -0.000899944 2.06251e-07)
(0 -0.00059829 -7.9938e-07)
(0 -0.000574986 -8.46948e-06)
(0 -0.000691108 -1.60383e-05)
(0 -0.000743759 -1.48616e-05)
(0 -0.000841527 -1.23712e-05)
(0 -0.000648583 -6.58228e-06)
(0 -0.000572021 -3.13302e-06)
(0 -0.000624689 -1.86635e-06)
(0 -0.000598367 4.84794e-08)
(0 -0.000807036 1.28994e-06)
(0 -0.000911287 3.13524e-06)
(0 -0.000682499 2.98921e-06)
(0 -0.000850139 4.21961e-06)
(0 -0.000591991 2.55112e-06)
(0 -0.000646984 2.77234e-06)
(0 -0.000752396 3.96072e-06)
(0 -0.000563948 3.3049e-06)
(0 -0.000792728 5.48124e-06)
(0 -0.00056131 4.37621e-06)
(0 -0.000639195 4.81546e-06)
(0 -0.000742739 6.2589e-06)
(0 -0.000635028 5.53511e-06)
(0 -0.000737335 5.68928e-06)
(0 -0.000601379 5.00319e-06)
(0 -0.000730995 4.94886e-06)
(0 -0.000624055 4.21898e-06)
(0 -0.000621252 4.35616e-06)
(0 -0.000590667 4.91207e-06)
(0 -0.000562169 4.40758e-06)
(0 -0.000855063 6.79616e-06)
(0 -0.000638252 5.24553e-06)
(0 -0.0007907 6.49696e-06)
(0 -0.000737791 6.39063e-06)
(0 -0.000653816 6.08373e-06)
(0 -0.00076763 7.1526e-06)
(0 -0.000675779 6.07272e-06)
(0 -0.000707446 6.4792e-06)
(0 -0.000625975 5.46389e-06)
(0 -0.000490353 4.43308e-06)
(0 -0.000552278 5.78798e-06)
(0 -0.000601372 6.48559e-06)
(0 -0.000702478 5.18886e-06)
(0 -0.000581877 2.34325e-06)
(0 -0.000673015 4.32237e-06)
(0 -0.000582398 1.97242e-06)
(0 0 0)
(0 0 0)
(0 0 0)
(0 0 0)
(0 0 0)
(0 0 0)
(0 0 0)
(0 0 0)
(0 0 0)
(0 0 0)
(0 0 0)
(0 0 0)
(0 0 0)
(0 0 0)
(0 0 0)
(0 0 0)
(0 0 0)
(0 0 0)
(0 0 0)
(0 0 0)
(0 0 0)
(0 0 0)
(0 0 0)
(0 0 0)
(0 0 0)
(0 0 0)
(0 0 0)
(0 0 0)
(0 0 0)
(0 0 0)
(0 0 0)
(0 0 0)
(0 0 0)
(0 0 0)
(0 0 0)
(0 0 0)
(0 0 0)
(0 0 0)
(0 0 0)
(0 0 0)
(0 0 0)
(0 0 0)
(0 0 0)
(0 0 0)
(0 0 0)
(0 0 0)
(0 0 0)
(0 0 0)
(0 0 0)
(0 0 0)
(0 0 0)
(0 7.4899e-15 -6.19808e-34)
(0 -3.50199e-05 -5.56861e-13)
(0 -0.00120638 -4.77244e-09)
(0 -0.000910284 1.16053e-07)
(0 -0.000611779 -1.92195e-05)
(0 -0.000590364 -1.8521e-05)
(0 -0.000679357 -1.73735e-05)
(0 -0.000770987 -1.45016e-05)
(0 -0.000666768 -9.3241e-06)
(0 -0.000743887 -5.20339e-06)
(0 -0.000746349 -2.3657e-06)
(0 -0.000587239 -3.53094e-07)
(0 -0.000896724 7.54964e-07)
(0 -0.000674061 1.62081e-06)
(0 -0.000613887 2.08724e-06)
(0 -0.000674707 3.14056e-06)
(0 -0.000841469 4.57798e-06)
(0 -0.000673342 3.73596e-06)
(0 -0.000561188 3.30448e-06)
(0 -0.000611386 4.02515e-06)
(0 -0.000639256 4.43878e-06)
(0 -0.000835031 5.66898e-06)
(0 -0.000831527 6.61165e-06)
(0 -0.000631637 5.05351e-06)
(0 -0.000878603 6.97144e-06)
(0 -0.000874127 7.47253e-06)
(0 -0.000545232 4.62673e-06)
(0 -0.000812342 7.25083e-06)
(0 -0.000540501 4.40225e-06)
(0 -0.000538176 4.52885e-06)
(0 -0.000641881 5.67239e-06)
(0 -0.000708723 6.78477e-06)
(0 -0.000529252 5.31889e-06)
(0 -0.000700333 6.37606e-06)
(0 -0.000570448 5.59813e-06)
(0 -0.000593866 5.5724e-06)
(0 -0.000516736 4.76412e-06)
(0 -0.000614273 5.71562e-06)
(0 -0.000608979 5.61794e-06)
(0 -0.000575335 5.89738e-06)
(0 -0.000544973 5.85609e-06)
(0 -0.00051671 5.42128e-06)
(0 -0.000533612 6.20877e-06)
(0 -0.000679156 7.13533e-06)
(0 -0.000757173 7.955e-06)
(0 -0.000658848 4.97457e-06)
(0 -0.000501664 2.30243e-06)
(0 -0.000598251 1.28624e-06)
(0 -0.000582638 5.47251e-07)
(0 0 0)
(0 0 0)
(0 0 0)
(0 0 0)
(0 0 0)
(0 0 0)
(0 0 0)
(0 0 0)
(0 0 0)
(0 0 0)
(0 0 0)
(0 0 0)
(0 0 0)
(0 0 0)
(0 0 0)
(0 0 0)
(0 0 0)
(0 0 0)
(0 0 0)
(0 0 0)
(0 0 0)
(0 0 0)
(0 0 0)
(0 0 0)
(0 0 0)
(0 0 0)
(0 0 0)
(0 0 0)
(0 0 0)
(0 0 0)
(0 0 0)
(0 0 0)
(0 0 0)
(0 0 0)
(0 0 0)
(0 0 0)
(0 0 0)
(0 0 0)
(0 0 0)
(0 0 0)
(0 0 0)
(0 0 0)
(0 0 0)
(0 0 0)
(0 0 0)
(0 0 0)
(0 0 0)
(0 0 0)
(0 0 0)
(0 0 0)
(0 1.38841e-24 0)
(0 -6.16656e-10 -1.77842e-18)
(0 -0.00130395 -9.43061e-09)
(0 -0.00109872 -4.27258e-08)
(0 -0.000772245 -1.04647e-05)
(0 -0.000685552 -4.06036e-05)
(0 -0.000676303 -3.58718e-05)
(0 -0.00067174 -2.36161e-05)
(0 -0.0008554 -1.97364e-05)
(0 -0.000571898 -7.36548e-06)
(0 -0.000822121 -5.21895e-06)
(0 -0.000604731 -1.1531e-06)
(0 -0.000701511 6.4628e-07)
(0 -0.000558734 1.02503e-06)
(0 -0.000705726 2.90423e-06)
(0 -0.000611208 3.34127e-06)
(0 -0.000585465 3.59417e-06)
(0 -0.00089497 5.07916e-06)
(0 -0.000560698 3.64183e-06)
(0 -0.000610495 4.32283e-06)
(0 -0.000835675 5.90849e-06)
(0 -0.000581225 4.53371e-06)
(0 -0.000580342 4.12958e-06)
(0 -0.000700095 4.83533e-06)
(0 -0.000697612 5.02792e-06)
(0 -0.00062925 4.46905e-06)
(0 -0.000658446 5.06853e-06)
(0 -0.000690073 5.68032e-06)
(0 -0.00068689 5.7316e-06)
(0 -0.000565731 5.3278e-06)
(0 -0.000563222 5.51369e-06)
(0 -0.000613597 5.76522e-06)
(0 -0.000673907 5.76772e-06)
(0 -0.00074739 7.09093e-06)
(0 -0.000700746 6.02062e-06)
(0 -0.000781368 7.05457e-06)
(0 -0.000689049 6.66477e-06)
(0 -0.000535861 6.03838e-06)
(0 -0.000509871 5.59875e-06)
(0 -0.00052771 5.84682e-06)
(0 -0.000666907 7.40094e-06)
(0 -0.000698429 8.44991e-06)
(0 -0.000534347 6.61111e-06)
(0 -0.000643048 7.28843e-06)
(0 -0.000476681 5.09043e-06)
(0 -0.000702614 6.30461e-06)
(0 -0.000691942 4.04302e-06)
(0 -0.000454917 3.34399e-06)
(0 -0.00044631 2.25684e-06)
(0 -0.000456393 2.81125e-06)
(0 0 0)
(0 0 0)
(0 0 0)
(0 0 0)
(0 0 0)
(0 0 0)
(0 0 0)
(0 0 0)
(0 0 0)
(0 0 0)
(0 0 0)
(0 0 0)
(0 0 0)
(0 0 0)
(0 0 0)
(0 0 0)
(0 0 0)
(0 0 0)
(0 0 0)
(0 0 0)
(0 0 0)
(0 0 0)
(0 0 0)
(0 0 0)
(0 0 0)
(0 0 0)
(0 0 0)
(0 0 0)
(0 0 0)
(0 0 0)
(0 0 0)
(0 0 0)
(0 0 0)
(0 0 0)
(0 0 0)
(0 0 0)
(0 0 0)
(0 0 0)
(0 0 0)
(0 0 0)
(0 0 0)
(0 0 0)
(0 0 0)
(0 0 0)
(0 0 0)
(0 0 0)
(0 0 0)
(0 0 0)
(0 0 0)
(0 0 0)
(0 4.19188e-14 0)
(0 -5.2886e-05 -4.21529e-15)
(0 -0.0011912 2.75115e-09)
(0 -0.000883346 1.52761e-07)
(0 -0.000684044 -1.01285e-05)
(0 -0.000599745 -2.81142e-05)
(0 -0.000734755 -3.36112e-05)
(0 -0.000577158 -1.67374e-05)
(0 -0.000697139 -1.3699e-05)
(0 -0.000735387 -8.59542e-06)
(0 -0.000927103 -6.38969e-06)
(0 -0.000772268 -1.16726e-06)
(0 -0.000730371 2.60456e-07)
(0 -0.000630389 1.97786e-06)
(0 -0.000919938 3.27974e-06)
(0 -0.000765228 4.22669e-06)
(0 -0.000858148 5.51597e-06)
(0 -0.000685985 3.76777e-06)
(0 -0.000759817 4.85423e-06)
(0 -0.000682173 4.66529e-06)
(0 -0.000592227 3.89571e-06)
(0 -0.000903142 6.5781e-06)
(0 -0.000750273 5.39859e-06)
(0 -0.000641322 4.38845e-06)
(0 -0.000560099 4.26649e-06)
(0 -0.000669346 4.87162e-06)
(0 -0.000740589 5.93958e-06)
(0 -0.000554538 4.72675e-06)
(0 -0.000631037 5.64618e-06)
(0 -0.000732172 6.78649e-06)
(0 -0.00081779 7.20508e-06)
(0 -0.000764689 7.06548e-06)
(0 -0.000588016 4.70651e-06)
(0 -0.000754732 5.94433e-06)
(0 -0.000607929 5.04857e-06)
(0 -0.00060408 4.69855e-06)
(0 -0.000599749 5.39088e-06)
(0 -0.000734075 8.18888e-06)
(0 -0.000590073 7.41425e-06)
(0 -0.000646132 8.0638e-06)
(0 -0.000608281 6.45509e-06)
(0 -0.000800611 7.58891e-06)
(0 -0.000698175 7.41096e-06)
(0 -0.00051042 5.22537e-06)
(0 -0.000720984 7.24363e-06)
(0 -0.000757987 5.96713e-06)
(0 -0.00046912 2.89249e-06)
(0 -0.000612538 5.24037e-06)
(0 -0.0004921 4.86815e-06)
(0 -0.000654897 5.64396e-06)
(0 0 0)
(0 0 0)
(0 0 0)
(0 0 0)
(0 0 0)
(0 0 0)
(0 0 0)
(0 0 0)
(0 0 0)
(0 0 0)
(0 0 0)
(0 0 0)
(0 0 0)
(0 0 0)
(0 0 0)
(0 0 0)
(0 0 0)
(0 0 0)
(0 0 0)
(0 0 0)
(0 0 0)
(0 0 0)
(0 0 0)
(0 0 0)
(0 0 0)
(0 0 0)
(0 0 0)
(0 0 0)
(0 0 0)
(0 0 0)
(0 0 0)
(0 0 0)
(0 0 0)
(0 0 0)
(0 0 0)
(0 0 0)
(0 0 0)
(0 0 0)
(0 0 0)
(0 0 0)
(0 0 0)
(0 0 0)
(0 0 0)
(0 0 0)
(0 0 0)
(0 0 0)
(0 0 0)
(0 0 0)
(0 0 0)
(0 0 0)
(0 7.51512e-13 -6.1725e-30)
(0 -0.000529905 -1.03309e-11)
(0 -0.00113966 3.06391e-09)
(0 -0.000820491 1.92212e-07)
(0 -0.000636663 -2.05403e-05)
(0 -0.000629166 -2.49499e-05)
(0 -0.0005671 -1.89025e-05)
(0 -0.00090568 -1.95875e-05)
(0 -0.000912014 -1.56209e-05)
(0 -0.000658019 -7.72575e-06)
(0 -0.000692598 -4.57141e-06)
(0 -0.000815272 -1.48013e-06)
(0 -0.000580381 3.5655e-07)
(0 -0.000866963 2.23578e-06)
(0 -0.000579449 1.99276e-06)
(0 -0.000770357 3.81725e-06)
(0 -0.000921939 5.05433e-06)
(0 -0.000691089 3.68984e-06)
(0 -0.000627337 3.83277e-06)
(0 -0.000723988 4.52782e-06)
(0 -0.000685833 4.56157e-06)
(0 -0.00071956 4.59621e-06)
(0 -0.000649701 4.4771e-06)
(0 -0.000567461 4.29331e-06)
(0 -0.000846434 6.87387e-06)
(0 -0.000587617 4.35463e-06)
(0 -0.000894456 6.1381e-06)
(0 -0.000784947 6.46826e-06)
(0 -0.000883498 7.34649e-06)
(0 -0.000775073 6.01226e-06)
(0 -0.00054677 4.16135e-06)
(0 -0.000867465 6.98082e-06)
(0 -0.000540499 4.61209e-06)
(0 -0.000560685 4.8464e-06)
(0 -0.000752876 6.59397e-06)
(0 -0.000553698 4.86986e-06)
(0 -0.000631097 5.85909e-06)
(0 -0.000735065 7.0328e-06)
(0 -0.000824077 9.20126e-06)
(0 -0.000815355 9.15859e-06)
(0 -0.000637725 6.57995e-06)
(0 -0.000522044 4.86238e-06)
(0 -0.000593245 5.84093e-06)
(0 -0.000650274 6.35913e-06)
(0 -0.000677768 4.48148e-06)
(0 -0.000755146 4.12224e-06)
(0 -0.000486293 4.61519e-06)
(0 -0.000499247 5.13982e-06)
(0 -0.000596441 6.26697e-06)
(0 -0.000478033 3.85647e-06)
(0 0 0)
(0 0 0)
(0 0 0)
(0 0 0)
(0 0 0)
(0 0 0)
(0 0 0)
(0 0 0)
(0 0 0)
(0 0 0)
(0 0 0)
(0 0 0)
(0 0 0)
(0 0 0)
(0 0 0)
(0 0 0)
(0 0 0)
(0 0 0)
(0 0 0)
(0 0 0)
(0 0 0)
(0 0 0)
(0 0 0)
(0 0 0)
(0 0 0)
(0 0 0)
(0 0 0)
(0 0 0)
(0 0 0)
(0 0 0)
(0 0 0)
(0 0 0)
(0 0 0)
(0 0 0)
(0 0 0)
(0 0 0)
(0 0 0)
(0 0 0)
(0 0 0)
(0 0 0)
(0 0 0)
(0 0 0)
(0 0 0)
(0 0 0)
(0 0 0)
(0 0 0)
(0 0 0)
(0 0 0)
(0 0 0)
(0 7.74614e-22 -3.38148e-41)
(0 -1.07817e-08 -1.69142e-14)
(0 -0.0012829 -6.01802e-08)
(0 -0.00104599 -1.72269e-07)
(0 -0.000701059 -1.50838e-05)
(0 -0.000745866 -3.74097e-05)
(0 -0.000700991 -2.80384e-05)
(0 -0.000568164 -1.21907e-05)
(0 -0.000911766 -1.53896e-05)
(0 -0.000636781 -8.49058e-06)
(0 -0.000589776 -4.41283e-06)
(0 -0.00064589 -1.38661e-06)
(0 -0.00079018 -4.32142e-07)
(0 -0.000748672 4.06524e-07)
(0 -0.000746992 8.29043e-07)
(0 -0.000708525 2.60293e-06)
(0 -0.00083092 3.33165e-06)
(0 -0.000880619 3.62303e-06)
(0 -0.000612708 2.82847e-06)
(0 -0.000738861 4.26331e-06)
(0 -0.000637026 3.40335e-06)
(0 -0.000697988 3.77426e-06)
(0 -0.000695435 3.81507e-06)
(0 -0.000692724 4.33289e-06)
(0 -0.000657347 5.02991e-06)
(0 -0.000723527 5.24923e-06)
(0 -0.000720323 4.42265e-06)
(0 -0.000592533 2.9961e-06)
(0 -0.000795918 4.42141e-06)
(0 -0.000791374 4.27536e-06)
(0 -0.000637584 3.6392e-06)
(0 -0.000579116 4.4082e-06)
(0 -0.000696215 4.6198e-06)
(0 -0.000657025 4.95509e-06)
(0 -0.000766221 6.3713e-06)
(0 -0.000647143 5.15226e-06)
(0 -0.000641901 5.15365e-06)
(0 -0.000606327 5.42098e-06)
(0 -0.00060133 4.90817e-06)
(0 -0.000832074 5.85648e-06)
(0 -0.000823236 5.94574e-06)
(0 -0.000643477 5.1587e-06)
(0 -0.000604232 5.84272e-06)
(0 -0.000701355 6.17126e-06)
(0 -0.000692131 4.74765e-06)
(0 -0.000485346 3.22624e-06)
(0 -0.000521679 2.23184e-06)
(0 -0.000748853 5.08743e-06)
(0 -0.000732975 5.83267e-06)
(0 -0.000538663 4.46429e-06)
(0 -0.000500454 6.19941e-06)
(0 0 0)
(0 0 0)
(0 0 0)
(0 0 0)
(0 0 0)
(0 0 0)
(0 0 0)
(0 0 0)
(0 0 0)
(0 0 0)
(0 0 0)
(0 0 0)
(0 0 0)
(0 0 0)
(0 0 0)
(0 0 0)
(0 0 0)
(0 0 0)
(0 0 0)
(0 0 0)
(0 0 0)
(0 0 0)
(0 0 0)
(0 0 0)
(0 0 0)
(0 0 0)
(0 0 0)
(0 0 0)
(0 0 0)
(0 0 0)
(0 0 0)
(0 0 0)
(0 0 0)
(0 0 0)
(0 0 0)
(0 0 0)
(0 0 0)
(0 0 0)
(0 0 0)
(0 0 0)
(0 0 0)
(0 0 0)
(0 0 0)
(0 0 0)
(0 0 0)
(0 0 0)
(0 0 0)
(0 0 0)
(0 3.07075e-30 0)
(0 -1.49391e-11 -3.38148e-41)
(0 -0.00118343 -1.69142e-14)
(0 -0.00114319 -1.80189e-10)
(0 -0.000824564 -9.06764e-09)
(0 -0.000717556 -6.22679e-06)
(0 -0.000677088 -1.31415e-05)
(0 -0.000697298 -1.04839e-05)
(0 -0.000831592 -5.2263e-06)
(0 -0.000844848 -4.73533e-06)
(0 -0.000672196 -2.71705e-06)
(0 -0.000674445 -1.29926e-06)
(0 -0.00102892 2.4598e-07)
(0 -0.000859461 3.22244e-08)
(0 -0.000674107 -1.2525e-07)
(0 -0.000645076 7.31997e-08)
(0 -0.000855596 1.14526e-06)
(0 -0.000808493 1.10061e-06)
(0 -0.000805882 1.13631e-06)
(0 -0.000693851 1.26727e-06)
(0 -0.000891842 2.01565e-06)
(0 -0.000719223 1.53355e-06)
(0 -0.000715144 1.43815e-06)
(0 -0.000711057 1.47059e-06)
(0 -0.000706614 1.68081e-06)
(0 -0.000919656 2.92099e-06)
(0 -0.000974077 2.99938e-06)
(0 -0.000632509 1.37625e-06)
(0 -0.000627875 1.28976e-06)
(0 -0.000716416 1.37822e-06)
(0 -0.000678068 1.24676e-06)
(0 -0.00061475 1.36899e-06)
(0 -0.000932132 3.21973e-06)
(0 -0.000694008 1.93659e-06)
(0 -0.000654754 1.88354e-06)
(0 -0.000799725 2.57517e-06)
(0 -0.000791759 2.7451e-06)
(0 -0.000605872 1.9422e-06)
(0 -0.000875724 3.63722e-06)
(0 -0.000764074 2.90338e-06)
(0 -0.000612021 1.46612e-06)
(0 -0.000668035 1.63881e-06)
(0 -0.000626715 1.97447e-06)
(0 -0.000821999 3.5475e-06)
(0 -0.000715378 2.55405e-06)
(0 -0.000545276 1.3844e-06)
(0 -0.000783787 3.32253e-06)
(0 -0.000526459 1.37043e-06)
(0 -0.000567262 9.92856e-07)
(0 -0.000584963 1.16312e-06)
(0 -0.000570883 2.02843e-06)
(0 -0.000654871 4.43548e-06)
)
;

boundaryField
{
    inlet
    {
        type            fixedValue;
        value           uniform (0 -0.0005 0);
    }
    outlet
    {
        type            fluxCorrectedVelocity;
        phi             phi.gas;
        rho             rho.gas;
        value           uniform (0 0 0);
    }
    walls
    {
        type            fixedValue;
        value           uniform (0 0 0);
    }
}


// ************************************************************************* //
