/*--------------------------------*- C++ -*----------------------------------*\
| =========                 |                                                 |
| \\      /  F ield         | foam-extend: Open Source CFD                    |
|  \\    /   O peration     | Version:     5.0                                |
|   \\  /    A nd           | Web:         http://www.foam-extend.org         |
|    \\/     M anipulation  |                                                 |
\*---------------------------------------------------------------------------*/
FoamFile
{
    version     2.0;
    format      ascii;
    class       volVectorField;
    location    "6000";
    object      U.oil;
}
// * * * * * * * * * * * * * * * * * * * * * * * * * * * * * * * * * * * * * //

dimensions      [0 1 -1 0 0 0 0];

internalField   nonuniform List<vector> 
1000
(
(0 -0.000585828 -6.88035e-06)
(0 -0.000647053 -4.26243e-06)
(0 -0.000465556 -1.92867e-06)
(0 -0.000535337 -1.49445e-06)
(0 -0.00044014 -8.60449e-07)
(0 -0.000593489 -8.29595e-07)
(0 -0.000629065 -6.35803e-07)
(0 -0.000669832 -4.92462e-07)
(0 -0.000557484 -2.991e-07)
(0 -0.00050127 -1.96597e-07)
(0 -0.00050093 -1.43745e-07)
(0 -0.000625851 -1.3146e-07)
(0 -0.000526841 -8.10217e-08)
(0 -0.000555961 -6.26023e-08)
(0 -0.000555853 -4.58255e-08)
(0 -0.000454724 -2.74427e-08)
(0 -0.000416787 -1.84069e-08)
(0 -0.000454642 -1.46843e-08)
(0 -0.00066677 -1.57315e-08)
(0 -0.000434832 -7.47788e-09)
(0 -0.000588285 -7.34383e-09)
(0 -0.000416693 -3.74661e-09)
(0 -0.000526341 -3.35752e-09)
(0 -0.000555576 -2.43946e-09)
(0 -0.000666687 -1.88834e-09)
(0 -0.000526329 -8.16414e-10)
(0 -0.000434793 -1.83351e-10)
(0 -0.000555569 3.70212e-10)
(0 -0.000454557 8.27002e-10)
(0 -0.000434796 1.36952e-09)
(0 -0.000476209 2.27975e-09)
(0 -0.000500025 3.44568e-09)
(0 -0.000454576 4.39341e-09)
(0 -0.000454587 6.08083e-09)
(0 -0.00052638 9.67635e-09)
(0 -0.000416736 1.04855e-08)
(0 -0.000416761 1.43168e-08)
(0 -0.000434916 2.0361e-08)
(0 -0.000625261 3.98276e-08)
(0 -0.000526614 4.55612e-08)
(0 -0.000555984 6.52014e-08)
(0 -0.000588851 9.33649e-08)
(0 -0.000527063 1.1262e-07)
(0 -0.000477105 1.36822e-07)
(0 -0.000501296 1.91957e-07)
(0 -0.000528151 2.68386e-07)
(0 -0.000478414 3.20399e-07)
(0 -0.000670816 5.88156e-07)
(0 -0.000630162 7.20893e-07)
(0 -0.000459515 6.90988e-07)
(0 -0.000441101 9.03583e-07)
(0 -0.000566525 1.74129e-06)
(0 -0.000447221 2.49061e-06)
(0 -0.000523936 6.76815e-06)
(0 -0.000730354 2.27483e-05)
(0 -0.000639122 1.16092e-05)
(0 -0.000711647 -1.85827e-05)
(0 -0.000456723 -1.58839e-05)
(0 -0.000387484 -9.32215e-06)
(0 -0.00033464 -5.26883e-06)
(0 -0.000328493 -3.70832e-06)
(0 -0.000320152 -3.25644e-06)
(0 -0.000302309 -2.92755e-06)
(0 -0.000274444 -2.45274e-06)
(0 -0.000387978 -3.38203e-06)
(0 -0.000232464 -2.03279e-06)
(0 -0.000255392 -2.13626e-06)
(0 -0.000258525 -2.3417e-06)
(0 -0.000312792 -2.85295e-06)
(0 -0.000323495 -3.10044e-06)
(0 -0.000222827 -1.9944e-06)
(0 -0.00030209 -2.85179e-06)
(0 -0.000218657 -1.96836e-06)
(0 -0.00019117 -1.72532e-06)
(0 -0.000175502 -1.56078e-06)
(0 -0.000160969 -1.57218e-06)
(0 -0.000185229 -1.90992e-06)
(0 -0.000153896 -1.5737e-06)
(0 -0.000178358 -1.93649e-06)
(0 -0.000154052 -1.666e-06)
(0 -0.000139844 -1.53711e-06)
(0 -0.000154217 -1.77159e-06)
(0 -0.000186772 -2.42193e-06)
(0 -0.000120381 -1.43352e-06)
(0 -0.000124941 -1.54338e-06)
(0 -0.000117556 -1.55356e-06)
(0 -0.000110065 -1.57204e-06)
(0 -0.000102523 -1.50673e-06)
(0 -9.50848e-05 -1.33203e-06)
(0 -7.93305e-05 -1.1392e-06)
(0 -7.21144e-05 -1.06939e-06)
(0 -5.90679e-05 -9.05087e-07)
(0 -6.31079e-05 -1.19191e-06)
(0 -7.04874e-05 -1.51937e-06)
(0 -4.62992e-05 -9.27772e-07)
(0 -4.32787e-05 -8.66423e-07)
(0 -2.68937e-05 -5.99162e-07)
(0 -2.39113e-05 -6.28103e-07)
(0 -1.44073e-05 -6.03561e-07)
(0 -7.13373e-06 -3.3098e-07)
(0 -0.000492597 -1.34514e-05)
(0 -0.000489116 -8.31989e-06)
(0 -0.00053697 -6.08209e-06)
(0 -0.000634297 -4.9845e-06)
(0 -0.000673928 -3.7636e-06)
(0 -0.000559984 -2.25291e-06)
(0 -0.000670555 -1.95828e-06)
(0 -0.000590747 -1.25753e-06)
(0 -0.000417969 -6.50005e-07)
(0 -0.000556827 -6.33387e-07)
(0 -0.000455307 -3.79053e-07)
(0 -0.000500614 -3.05125e-07)
(0 -0.00050045 -2.23341e-07)
(0 -0.000588623 -1.92347e-07)
(0 -0.000555824 -1.32983e-07)
(0 -0.000454706 -7.96383e-08)
(0 -0.000588388 -7.54121e-08)
(0 -0.000555662 -5.20835e-08)
(0 -0.00052639 -3.60414e-08)
(0 -0.00041671 -2.07961e-08)
(0 -0.000434816 -1.57515e-08)
(0 -0.000555587 -1.44959e-08)
(0 -0.000526339 -9.74249e-09)
(0 -0.000666689 -8.49382e-09)
(0 -0.000500014 -4.10892e-09)
(0 -0.000588249 -2.64673e-09)
(0 -0.000476201 -5.81742e-10)
(0 -0.000476201 9.21938e-10)
(0 -0.000434793 2.29669e-09)
(0 -0.000476204 4.35427e-09)
(0 -0.000416681 5.79053e-09)
(0 -0.00052634 1.05288e-08)
(0 -0.000625038 1.75369e-08)
(0 -0.000476229 1.84947e-08)
(0 -0.000526374 2.8096e-08)
(0 -0.000434848 3.17744e-08)
(0 -0.000500102 4.99029e-08)
(0 -0.000500139 6.80335e-08)
(0 -0.000500189 9.2612e-08)
(0 -0.000526586 1.32498e-07)
(0 -0.000625437 2.13455e-07)
(0 -0.000556084 2.56813e-07)
(0 -0.000417205 2.59935e-07)
(0 -0.000477025 3.99403e-07)
(0 -0.000455623 5.10144e-07)
(0 -0.000590116 8.78192e-07)
(0 -0.000478237 9.39064e-07)
(0 -0.00062859 1.61557e-06)
(0 -0.000503811 1.68237e-06)
(0 -0.000531584 2.29958e-06)
(0 -0.000506459 2.86836e-06)
(0 -0.000597703 4.62644e-06)
(0 -0.000598936 7.03392e-06)
(0 -0.000422187 9.02333e-06)
(0 -0.000443134 1.93298e-05)
(0 -0.000570584 1.43176e-05)
(0 -0.000570337 -4.4714e-05)
(0 -0.000382668 -4.0919e-05)
(0 -0.000298642 -2.28237e-05)
(0 -0.000259171 -1.35235e-05)
(0 -0.000364967 -1.43107e-05)
(0 -0.000307765 -1.06217e-05)
(0 -0.000228074 -7.06521e-06)
(0 -0.000238435 -6.94824e-06)
(0 -0.000322618 -9.21019e-06)
(0 -0.000193322 -5.41933e-06)
(0 -0.000299227 -8.23152e-06)
(0 -0.000187801 -5.17099e-06)
(0 -0.000245938 -6.94138e-06)
(0 -0.000183187 -5.34453e-06)
(0 -0.000260397 -7.62345e-06)
(0 -0.000222422 -6.64575e-06)
(0 -0.000244346 -7.09746e-06)
(0 -0.000208385 -6.00847e-06)
(0 -0.000228671 -6.32819e-06)
(0 -0.0001369 -3.80619e-06)
(0 -0.00013072 -3.79746e-06)
(0 -0.000136346 -4.01744e-06)
(0 -0.000130168 -4.11694e-06)
(0 -0.000130079 -4.15169e-06)
(0 -0.000137217 -4.62485e-06)
(0 -0.000166788 -5.82487e-06)
(0 -0.000107727 -4.09662e-06)
(0 -0.000141016 -5.21535e-06)
(0 -0.000126171 -4.61079e-06)
(0 -0.000106599 -4.05935e-06)
(0 -7.84461e-05 -3.07955e-06)
(0 -7.22167e-05 -3.08022e-06)
(0 -9.48415e-05 -4.16557e-06)
(0 -7.82522e-05 -3.45202e-06)
(0 -7.1477e-05 -3.23438e-06)
(0 -8.31168e-05 -3.96546e-06)
(0 -5.89455e-05 -3.05749e-06)
(0 -4.21383e-05 -2.42479e-06)
(0 -4.36933e-05 -2.63889e-06)
(0 -4.76291e-05 -2.8753e-06)
(0 -2.87433e-05 -1.66362e-06)
(0 -3.02533e-05 -1.99318e-06)
(0 -1.16704e-05 -1.08731e-06)
(0 -7.04508e-06 -9.28318e-07)
(0 -0.00044423 -1.43056e-05)
(0 -0.000599173 -1.36844e-05)
(0 -0.000676484 -1.10226e-05)
(0 -0.000532226 -6.24208e-06)
(0 -0.000593177 -5.04242e-06)
(0 -0.000457375 -2.83083e-06)
(0 -0.000478375 -2.16159e-06)
(0 -0.000436248 -1.44134e-06)
(0 -0.00058969 -1.42574e-06)
(0 -0.000667876 -1.18218e-06)
(0 -0.000476823 -6.18015e-07)
(0 -0.000625609 -5.93787e-07)
(0 -0.000500357 -3.47773e-07)
(0 -0.000500262 -2.54612e-07)
(0 -0.000588461 -2.19289e-07)
(0 -0.000666854 -1.81914e-07)
(0 -0.000416753 -8.31953e-08)
(0 -0.00041673 -6.08392e-08)
(0 -0.000454596 -4.84791e-08)
(0 -0.000526359 -4.09128e-08)
(0 -0.000625038 -3.52651e-08)
(0 -0.000434802 -1.76684e-08)
(0 -0.000526334 -1.51728e-08)
(0 -0.000500014 -9.92074e-09)
(0 -0.000454555 -5.81683e-09)
(0 -0.000625012 -4.37843e-09)
(0 -0.000526325 -1.00008e-09)
(0 -0.000476199 1.43735e-09)
(0 -0.000526326 4.33219e-09)
(0 -0.000434793 6.19445e-09)
(0 -0.000625018 1.35335e-08)
(0 -0.000476208 1.48437e-08)
(0 -0.000454568 1.9876e-08)
(0 -0.000500033 3.02683e-08)
(0 -0.000526362 4.38022e-08)
(0 -0.000625075 7.12319e-08)
(0 -0.000500081 7.78571e-08)
(0 -0.000625138 1.32755e-07)
(0 -0.000588413 1.70211e-07)
(0 -0.000666941 2.62443e-07)
(0 -0.000625351 3.34211e-07)
(0 -0.000454893 3.29528e-07)
(0 -0.000526865 5.15997e-07)
(0 -0.000625889 8.25936e-07)
(0 -0.000500969 8.86841e-07)
(0 -0.000501318 1.18371e-06)
(0 -0.000436338 1.36412e-06)
(0 -0.000502416 2.06031e-06)
(0 -0.000629047 3.34466e-06)
(0 -0.000420234 2.85633e-06)
(0 -0.000674024 5.75633e-06)
(0 -0.000633452 6.64445e-06)
(0 -0.000461275 5.71336e-06)
(0 -0.000459962 6.02721e-06)
(0 -0.000497048 3.17321e-06)
(0 -0.000472395 -7.13238e-06)
(0 -0.000433175 -2.51058e-05)
(0 -0.000422361 -2.90761e-05)
(0 -0.000359967 -2.11643e-05)
(0 -0.000283419 -1.37901e-05)
(0 -0.000366488 -1.61399e-05)
(0 -0.000263274 -1.03581e-05)
(0 -0.000292466 -1.01965e-05)
(0 -0.000280273 -9.12785e-06)
(0 -0.000269827 -8.33639e-06)
(0 -0.00019379 -5.68325e-06)
(0 -0.000202986 -6.13512e-06)
(0 -0.000239833 -7.06558e-06)
(0 -0.00026173 -8.11032e-06)
(0 -0.000238769 -7.36355e-06)
(0 -0.000177782 -5.56291e-06)
(0 -0.000179493 -5.72494e-06)
(0 -0.000173045 -5.40404e-06)
(0 -0.000145265 -4.60448e-06)
(0 -0.000176796 -5.5215e-06)
(0 -0.000180068 -5.35717e-06)
(0 -0.000164124 -4.97015e-06)
(0 -0.000188083 -5.81417e-06)
(0 -0.000137202 -4.43023e-06)
(0 -0.00018514 -6.11121e-06)
(0 -0.000132854 -4.60626e-06)
(0 -0.000159582 -5.69176e-06)
(0 -0.000100782 -3.62672e-06)
(0 -0.00010392 -3.85115e-06)
(0 -0.000128275 -4.59725e-06)
(0 -9.81092e-05 -3.58497e-06)
(0 -0.000114915 -4.08484e-06)
(0 -7.92375e-05 -2.92911e-06)
(0 -7.00555e-05 -2.77756e-06)
(0 -7.03839e-05 -2.84079e-06)
(0 -7.52566e-05 -3.17749e-06)
(0 -5.62202e-05 -2.52915e-06)
(0 -5.24668e-05 -2.52021e-06)
(0 -4.84341e-05 -2.48132e-06)
(0 -3.59586e-05 -1.92909e-06)
(0 -2.92262e-05 -1.7001e-06)
(0 -3.60771e-05 -2.13379e-06)
(0 -2.86986e-05 -1.91188e-06)
(0 -1.19868e-05 -9.0806e-07)
(0 -6.95925e-06 -9.53751e-07)
(0 -0.000481972 -1.64394e-05)
(0 -0.000531987 -1.37607e-05)
(0 -0.000593434 -1.14447e-05)
(0 -0.000437789 -6.24291e-06)
(0 -0.000456936 -4.79786e-06)
(0 -0.000627461 -4.84039e-06)
(0 -0.000436052 -2.46827e-06)
(0 -0.00052745 -2.18916e-06)
(0 -0.00052715 -1.60353e-06)
(0 -0.000556202 -1.23965e-06)
(0 -0.000667235 -1.08939e-06)
(0 -0.00045483 -5.43915e-07)
(0 -0.000476409 -4.17246e-07)
(0 -0.000416807 -2.67319e-07)
(0 -0.000500123 -2.34853e-07)
(0 -0.000555656 -1.91012e-07)
(0 -0.000666755 -1.67726e-07)
(0 -0.000666732 -1.22657e-07)
(0 -0.000454578 -6.10862e-08)
(0 -0.000526344 -5.15524e-08)
(0 -0.000625025 -4.44359e-08)
(0 -0.000500015 -2.56025e-08)
(0 -0.000588249 -2.13676e-08)
(0 -0.000454554 -1.1364e-08)
(0 -0.000526323 -8.48639e-09)
(0 -0.000555562 -4.90344e-09)
(0 -0.000476196 -1.13936e-09)
(0 -0.000625007 2.37872e-09)
(0 -0.000476197 4.94093e-09)
(0 -0.000416673 7.48317e-09)
(0 -0.000454554 1.2408e-08)
(0 -0.000416677 1.63756e-08)
(0 -0.000666688 3.67605e-08)
(0 -0.000416684 3.1815e-08)
(0 -0.000625036 6.56292e-08)
(0 -0.000555599 7.99245e-08)
(0 -0.000416711 8.19467e-08)
(0 -0.000500072 1.34244e-07)
(0 -0.000416748 1.52559e-07)
(0 -0.000625168 3.11757e-07)
(0 -0.000434943 2.95129e-07)
(0 -0.000416877 3.84353e-07)
(0 -0.000526682 6.58563e-07)
(0 -0.000556088 9.40644e-07)
(0 -0.000500662 1.14174e-06)
(0 -0.000667889 2.04373e-06)
(0 -0.000435889 1.77816e-06)
(0 -0.000501765 2.70432e-06)
(0 -0.000558271 3.92512e-06)
(0 -0.000629204 5.66598e-06)
(0 -0.000593613 6.65582e-06)
(0 -0.000532715 7.0819e-06)
(0 -0.000597383 8.48036e-06)
(0 -0.000535831 5.8457e-06)
(0 -0.000632007 -5.09881e-06)
(0 -0.000416523 -1.77397e-05)
(0 -0.00039555 -2.30703e-05)
(0 -0.000395462 -2.38319e-05)
(0 -0.000375155 -2.01668e-05)
(0 -0.000392045 -1.86173e-05)
(0 -0.000278323 -1.18946e-05)
(0 -0.000227882 -8.80646e-06)
(0 -0.000235467 -8.64519e-06)
(0 -0.000214605 -7.27762e-06)
(0 -0.000279838 -9.20021e-06)
(0 -0.00030719 -9.57236e-06)
(0 -0.000222001 -6.80677e-06)
(0 -0.000268943 -8.1884e-06)
(0 -0.000180159 -5.73728e-06)
(0 -0.000190095 -6.16299e-06)
(0 -0.000214542 -6.78942e-06)
(0 -0.000154588 -4.89103e-06)
(0 -0.000211159 -6.53574e-06)
(0 -0.000143615 -4.43685e-06)
(0 -0.00015766 -5.06319e-06)
(0 -0.000177382 -5.61932e-06)
(0 -0.000145949 -4.71407e-06)
(0 -0.000163688 -5.61245e-06)
(0 -0.000127898 -4.37989e-06)
(0 -0.000149744 -5.53141e-06)
(0 -0.000122264 -4.59354e-06)
(0 -0.000116154 -4.42289e-06)
(0 -0.000104863 -3.95277e-06)
(0 -9.4194e-05 -3.75714e-06)
(0 -0.000137373 -5.53613e-06)
(0 -9.68845e-05 -4.00299e-06)
(0 -0.000114148 -4.81317e-06)
(0 -0.000100707 -4.28256e-06)
(0 -8.35074e-05 -3.58257e-06)
(0 -9.21459e-05 -4.07536e-06)
(0 -7.53236e-05 -3.48072e-06)
(0 -7.29415e-05 -3.4448e-06)
(0 -5.8677e-05 -2.89705e-06)
(0 -4.00669e-05 -2.07478e-06)
(0 -3.8824e-05 -2.05374e-06)
(0 -3.57232e-05 -2.05676e-06)
(0 -3.47806e-05 -2.38605e-06)
(0 -2.18341e-05 -1.81831e-06)
(0 -1.7354e-05 -1.50072e-06)
(0 -6.90787e-06 -9.36626e-07)
(0 -0.000669278 -2.33903e-05)
(0 -0.000418136 -1.13912e-05)
(0 -0.000589964 -1.22271e-05)
(0 -0.000435795 -6.76675e-06)
(0 -0.000417411 -4.81072e-06)
(0 -0.000435368 -3.70363e-06)
(0 -0.000526843 -3.29723e-06)
(0 -0.000435105 -1.99949e-06)
(0 -0.00066703 -2.24821e-06)
(0 -0.000454728 -1.12336e-06)
(0 -0.000588409 -1.06501e-06)
(0 -0.000588363 -7.80055e-07)
(0 -0.000416733 -4.04643e-07)
(0 -0.000416715 -2.96299e-07)
(0 -0.000476231 -2.47927e-07)
(0 -0.000454574 -1.73235e-07)
(0 -0.00052634 -1.46781e-07)
(0 -0.00066669 -1.35964e-07)
(0 -0.000625016 -9.31066e-08)
(0 -0.000588247 -6.38687e-08)
(0 -0.000416673 -3.2838e-08)
(0 -0.000416671 -2.36501e-08)
(0 -0.000500004 -2.01328e-08)
(0 -0.000454549 -1.25967e-08)
(0 -0.000416669 -7.44698e-09)
(0 -0.000500002 -4.8913e-09)
(0 -0.000434785 -1.15234e-09)
(0 -0.000416669 1.75915e-09)
(0 -0.000625003 7.19185e-09)
(0 -0.000434785 8.65974e-09)
(0 -0.000500004 1.5138e-08)
(0 -0.00045455 1.98162e-08)
(0 -0.000454551 2.78081e-08)
(0 -0.00062501 5.29626e-08)
(0 -0.000588247 6.85776e-08)
(0 -0.000476204 7.60984e-08)
(0 -0.000476208 1.04105e-07)
(0 -0.000454569 1.35788e-07)
(0 -0.000476224 1.94239e-07)
(0 -0.000416708 2.31934e-07)
(0 -0.000666758 5.06127e-07)
(0 -0.000500096 5.17376e-07)
(0 -0.000500136 7.04538e-07)
(0 -0.000500195 9.58189e-07)
(0 -0.00047646 1.2388e-06)
(0 -0.000625519 2.20106e-06)
(0 -0.000526965 2.49863e-06)
(0 -0.00043559 2.76474e-06)
(0 -0.000455827 3.83418e-06)
(0 -0.000478244 5.25092e-06)
(0 -0.000503323 7.05194e-06)
(0 -0.000631514 1.09124e-05)
(0 -0.000442221 8.90819e-06)
(0 -0.000686634 1.36585e-05)
(0 -0.000688898 -9.71722e-06)
(0 -0.000468456 -3.44802e-05)
(0 -0.000421048 -2.83308e-05)
(0 -0.000399168 -2.37259e-05)
(0 -0.0004011 -2.04663e-05)
(0 -0.000313014 -1.47881e-05)
(0 -0.00032624 -1.28262e-05)
(0 -0.000309552 -1.11306e-05)
(0 -0.000229164 -7.74573e-06)
(0 -0.000338018 -1.10788e-05)
(0 -0.000243635 -7.65893e-06)
(0 -0.000212534 -6.6026e-06)
(0 -0.000225132 -6.81033e-06)
(0 -0.000272949 -8.10693e-06)
(0 -0.000210997 -6.37922e-06)
(0 -0.000168834 -5.13628e-06)
(0 -0.000177242 -5.36855e-06)
(0 -0.000178854 -5.4926e-06)
(0 -0.000227349 -7.11192e-06)
(0 -0.000220357 -6.69577e-06)
(0 -0.000161504 -5.01883e-06)
(0 -0.000218842 -6.93958e-06)
(0 -0.000212122 -6.6702e-06)
(0 -0.000126782 -4.08932e-06)
(0 -0.000183374 -5.94975e-06)
(0 -0.000116613 -3.9761e-06)
(0 -0.000110718 -3.83688e-06)
(0 -0.000126697 -4.4283e-06)
(0 -0.000134623 -4.70002e-06)
(0 -9.53041e-05 -3.39261e-06)
(0 -0.000120779 -4.5558e-06)
(0 -9.31107e-05 -3.55357e-06)
(0 -9.15499e-05 -3.68228e-06)
(0 -7.42356e-05 -3.13665e-06)
(0 -8.26712e-05 -3.59393e-06)
(0 -7.64132e-05 -3.40852e-06)
(0 -6.66138e-05 -2.9811e-06)
(0 -5.73905e-05 -2.68401e-06)
(0 -4.85086e-05 -2.46506e-06)
(0 -4.39378e-05 -2.33104e-06)
(0 -4.9323e-05 -2.91637e-06)
(0 -4.83911e-05 -2.92984e-06)
(0 -3.54893e-05 -2.48575e-06)
(0 -2.01539e-05 -1.79029e-06)
(0 -1.59693e-05 -1.7732e-06)
(0 -7.03464e-06 -1.1563e-06)
(0 -0.000498043 -1.75427e-05)
(0 -0.000452943 -1.24268e-05)
(0 -0.000498532 -1.03931e-05)
(0 -0.000525091 -8.19132e-06)
(0 -0.000587185 -6.7916e-06)
(0 -0.000587445 -5.0108e-06)
(0 -0.000475715 -2.98321e-06)
(0 -0.000416359 -1.91617e-06)
(0 -0.000555254 -1.8735e-06)
(0 -0.000624751 -1.54462e-06)
(0 -0.000454413 -8.22966e-07)
(0 -0.000499893 -6.63046e-07)
(0 -0.000555469 -5.39523e-07)
(0 -0.000588168 -4.18304e-07)
(0 -0.000588186 -3.06263e-07)
(0 -0.000624962 -2.38198e-07)
(0 -0.000555531 -1.54935e-07)
(0 -0.00062498 -1.27466e-07)
(0 -0.000624985 -9.31061e-08)
(0 -0.000526307 -5.71453e-08)
(0 -0.000434777 -3.42654e-08)
(0 -0.000624995 -3.54746e-08)
(0 -0.000476187 -1.91737e-08)
(0 -0.000666664 -1.84745e-08)
(0 -0.000454544 -8.12347e-09)
(0 -0.000666665 -6.52078e-09)
(0 -0.000499999 -1.32416e-09)
(0 -0.000588234 2.48541e-09)
(0 -0.000416665 4.79684e-09)
(0 -0.000624998 1.24544e-08)
(0 -0.000454543 1.37696e-08)
(0 -0.000526312 2.29615e-08)
(0 -0.000476186 2.91595e-08)
(0 -0.000434777 3.68891e-08)
(0 -0.000666655 7.78493e-08)
(0 -0.000555542 8.89774e-08)
(0 -0.000555537 1.21816e-07)
(0 -0.000454525 1.3633e-07)
(0 -0.000434756 1.783e-07)
(0 -0.000666611 3.73774e-07)
(0 -0.000499945 3.83285e-07)
(0 -0.000555475 5.82384e-07)
(0 -0.000624883 8.96182e-07)
(0 -0.000454439 8.91723e-07)
(0 -0.000526168 1.41282e-06)
(0 -0.000499844 1.83614e-06)
(0 -0.000666471 3.34611e-06)
(0 -0.000666561 4.56293e-06)
(0 -0.000666813 6.19313e-06)
(0 -0.000667371 8.33537e-06)
(0 -0.000557061 9.22994e-06)
(0 -0.000628609 1.36191e-05)
(0 -0.000459877 1.30905e-05)
(0 -0.000484383 1.50699e-05)
(0 -0.000514153 -2.14137e-05)
(0 -0.000587401 -6.04547e-05)
(0 -0.000467028 -3.67421e-05)
(0 -0.000389571 -2.38188e-05)
(0 -0.00045441 -2.17086e-05)
(0 -0.000272291 -1.10493e-05)
(0 -0.000370033 -1.29421e-05)
(0 -0.000254377 -8.16899e-06)
(0 -0.000280874 -8.38618e-06)
(0 -0.000211582 -6.29151e-06)
(0 -0.000257045 -7.15686e-06)
(0 -0.000213452 -5.80514e-06)
(0 -0.000196144 -5.33856e-06)
(0 -0.000292224 -8.23686e-06)
(0 -0.00017583 -4.89948e-06)
(0 -0.000184574 -5.15881e-06)
(0 -0.000246148 -6.99971e-06)
(0 -0.000164934 -4.64661e-06)
(0 -0.00015856 -4.71187e-06)
(0 -0.000185307 -5.65182e-06)
(0 -0.000178834 -5.47708e-06)
(0 -0.000155628 -4.85455e-06)
(0 -0.000157242 -4.88724e-06)
(0 -0.000159246 -4.95237e-06)
(0 -0.000153082 -4.81127e-06)
(0 -0.000120693 -3.73096e-06)
(0 -0.000114767 -3.61923e-06)
(0 -0.000119634 -3.95544e-06)
(0 -0.000125993 -4.39434e-06)
(0 -0.000134375 -4.61294e-06)
(0 -0.000120675 -4.38385e-06)
(0 -0.000129271 -4.69798e-06)
(0 -0.000108784 -3.95504e-06)
(0 -7.93593e-05 -2.83625e-06)
(0 -7.01436e-05 -2.65894e-06)
(0 -6.71334e-05 -2.63162e-06)
(0 -7.92691e-05 -3.20174e-06)
(0 -7.75131e-05 -3.11526e-06)
(0 -5.37376e-05 -2.29227e-06)
(0 -5.88291e-05 -2.72265e-06)
(0 -3.78166e-05 -1.8559e-06)
(0 -4.93807e-05 -2.64604e-06)
(0 -4.23964e-05 -2.54063e-06)
(0 -2.16357e-05 -1.31473e-06)
(0 -1.41642e-05 -1.07589e-06)
(0 -6.47331e-06 -6.47012e-07)
(0 -0.000548812 -1.91793e-05)
(0 -0.000659485 -1.74302e-05)
(0 -0.000619477 -1.216e-05)
(0 -0.000451404 -6.52667e-06)
(0 -0.000523549 -5.55541e-06)
(0 -0.000474317 -3.68792e-06)
(0 -0.000433514 -2.46827e-06)
(0 -0.000433847 -1.80844e-06)
(0 -0.000665612 -2.03114e-06)
(0 -0.000525705 -1.1744e-06)
(0 -0.000587735 -9.61225e-07)
(0 -0.000416407 -4.98588e-07)
(0 -0.000475973 -4.17245e-07)
(0 -0.000454394 -2.9162e-07)
(0 -0.000434676 -2.04219e-07)
(0 -0.000434705 -1.49486e-07)
(0 -0.000555483 -1.39771e-07)
(0 -0.000416627 -7.66594e-08)
(0 -0.000588194 -7.90513e-08)
(0 -0.000454522 -4.45214e-08)
(0 -0.000588213 -4.18205e-08)
(0 -0.000499986 -2.56012e-08)
(0 -0.000526305 -1.9117e-08)
(0 -0.000499992 -1.2499e-08)
(0 -0.000588228 -9.48293e-09)
(0 -0.00066666 -5.88146e-09)
(0 -0.000499995 -1.19352e-09)
(0 -0.00055555 2.11925e-09)
(0 -0.00066666 6.92695e-09)
(0 -0.000499994 8.99242e-09)
(0 -0.000454538 1.24286e-08)
(0 -0.000624986 2.46146e-08)
(0 -0.000499985 2.76451e-08)
(0 -0.000555533 4.25723e-08)
(0 -0.000526287 5.55313e-08)
(0 -0.00043475 6.29512e-08)
(0 -0.000416624 8.26538e-08)
(0 -0.000454482 1.23458e-07)
(0 -0.00066654 2.47914e-07)
(0 -0.00052618 2.68073e-07)
(0 -0.000666433 4.65422e-07)
(0 -0.000555292 5.32192e-07)
(0 -0.000475885 6.26858e-07)
(0 -0.000416308 7.55221e-07)
(0 -0.000587562 1.47168e-06)
(0 -0.000453862 1.57449e-06)
(0 -0.000499031 2.4063e-06)
(0 -0.000415661 2.79573e-06)
(0 -0.00049858 4.68806e-06)
(0 -0.000433473 5.68768e-06)
(0 -0.000623349 1.12862e-05)
(0 -0.000665444 1.61465e-05)
(0 -0.000664209 2.03551e-05)
(0 -0.000419088 7.05598e-06)
(0 -0.000585139 -4.42253e-05)
(0 -0.000403432 -4.18318e-05)
(0 -0.000415846 -3.50327e-05)
(0 -0.000275279 -1.70216e-05)
(0 -0.000303898 -1.58927e-05)
(0 -0.000301163 -1.33654e-05)
(0 -0.000364911 -1.42239e-05)
(0 -0.000291611 -9.79244e-06)
(0 -0.000265074 -8.48839e-06)
(0 -0.000219328 -6.42799e-06)
(0 -0.000311408 -9.13608e-06)
(0 -0.000251044 -6.8946e-06)
(0 -0.000273977 -7.39237e-06)
(0 -0.000211871 -6.09245e-06)
(0 -0.00022782 -6.40794e-06)
(0 -0.00019801 -5.57791e-06)
(0 -0.000165607 -4.83154e-06)
(0 -0.000246359 -7.06675e-06)
(0 -0.000198723 -5.83065e-06)
(0 -0.000164074 -4.97596e-06)
(0 -0.000137622 -4.13331e-06)
(0 -0.000158819 -4.94478e-06)
(0 -0.000170195 -5.22605e-06)
(0 -0.000121971 -3.80541e-06)
(0 -0.000133277 -4.2146e-06)
(0 -0.00014908 -4.78994e-06)
(0 -0.000160969 -5.38694e-06)
(0 -0.000145112 -4.86199e-06)
(0 -0.000106208 -3.84717e-06)
(0 -0.000130869 -4.81572e-06)
(0 -0.000100084 -3.70398e-06)
(0 -9.40319e-05 -3.65699e-06)
(0 -8.79052e-05 -3.36724e-06)
(0 -0.000102017 -3.72923e-06)
(0 -7.64927e-05 -2.81308e-06)
(0 -7.80523e-05 -3.05243e-06)
(0 -6.77064e-05 -2.97473e-06)
(0 -8.30544e-05 -3.85992e-06)
(0 -6.65456e-05 -3.04682e-06)
(0 -4.27622e-05 -2.11686e-06)
(0 -5.39054e-05 -2.8051e-06)
(0 -5.02824e-05 -2.90017e-06)
(0 -2.47871e-05 -1.71269e-06)
(0 -2.49261e-05 -1.77488e-06)
(0 -1.27526e-05 -1.08881e-06)
(0 -7.30853e-06 -1.10648e-06)
(0 -0.00051488 -1.73173e-05)
(0 -0.000654273 -1.55089e-05)
(0 -0.000518567 -8.70201e-06)
(0 -0.000581631 -6.97644e-06)
(0 -0.000472191 -4.08196e-06)
(0 -0.000523041 -3.2778e-06)
(0 -0.000622135 -2.83708e-06)
(0 -0.000415263 -1.38128e-06)
(0 -0.000433708 -1.05381e-06)
(0 -0.000453722 -8.06028e-07)
(0 -0.000434206 -5.64273e-07)
(0 -0.000555016 -5.27809e-07)
(0 -0.00055516 -3.86412e-07)
(0 -0.000454309 -2.31463e-07)
(0 -0.000434617 -1.62082e-07)
(0 -0.000476058 -1.29937e-07)
(0 -0.000555442 -1.10925e-07)
(0 -0.000526237 -7.68474e-08)
(0 -0.000624932 -6.66561e-08)
(0 -0.00062495 -4.85813e-08)
(0 -0.000476162 -2.68666e-08)
(0 -0.00047617 -1.93491e-08)
(0 -0.000416653 -1.201e-08)
(0 -0.000416656 -8.26544e-09)
(0 -0.000666654 -8.5281e-09)
(0 -0.000666656 -4.66644e-09)
(0 -0.000666657 -1.26159e-09)
(0 -0.000588226 1.78231e-09)
(0 -0.000499991 4.12486e-09)
(0 -0.000555544 7.93278e-09)
(0 -0.000555541 1.20611e-08)
(0 -0.000476174 1.48921e-08)
(0 -0.000454524 1.99601e-08)
(0 -0.00062496 3.80472e-08)
(0 -0.000666609 5.58973e-08)
(0 -0.000588166 6.77135e-08)
(0 -0.000434713 6.86141e-08)
(0 -0.000434687 9.40275e-08)
(0 -0.000434652 1.28889e-07)
(0 -0.000587995 2.39228e-07)
(0 -0.000499721 2.79337e-07)
(0 -0.000624523 4.80594e-07)
(0 -0.000416233 4.42182e-07)
(0 -0.000554767 8.16698e-07)
(0 -0.000433942 8.89845e-07)
(0 -0.000415574 1.19533e-06)
(0 -0.000415192 1.69066e-06)
(0 -0.000585458 3.41522e-06)
(0 -0.000414103 3.50972e-06)
(0 -0.000661583 8.25964e-06)
(0 -0.000472177 8.72221e-06)
(0 -0.000551711 1.45986e-05)
(0 -0.000433385 1.3376e-05)
(0 -0.000513427 -6.58761e-06)
(0 -0.000522208 -4.13591e-05)
(0 -0.000418551 -3.39384e-05)
(0 -0.00029649 -2.11648e-05)
(0 -0.000433406 -2.27227e-05)
(0 -0.000408494 -1.95498e-05)
(0 -0.000273331 -1.15996e-05)
(0 -0.00027177 -1.01589e-05)
(0 -0.000307101 -1.00654e-05)
(0 -0.00020744 -6.43663e-06)
(0 -0.000300336 -8.81676e-06)
(0 -0.000192036 -5.59326e-06)
(0 -0.000247417 -6.90442e-06)
(0 -0.000288755 -8.00495e-06)
(0 -0.000209405 -5.95642e-06)
(0 -0.000183367 -5.1508e-06)
(0 -0.000205173 -5.83423e-06)
(0 -0.000188162 -5.35584e-06)
(0 -0.000191409 -5.60635e-06)
(0 -0.000166954 -4.88608e-06)
(0 -0.00014004 -4.09601e-06)
(0 -0.000203183 -5.9044e-06)
(0 -0.000135495 -4.15462e-06)
(0 -0.00020069 -6.37148e-06)
(0 -0.000170734 -5.23028e-06)
(0 -0.000186846 -5.84668e-06)
(0 -0.000158651 -5.1799e-06)
(0 -0.000106646 -3.59262e-06)
(0 -0.000163914 -5.49176e-06)
(0 -9.69167e-05 -3.2954e-06)
(0 -9.52307e-05 -3.33705e-06)
(0 -0.000122499 -4.38947e-06)
(0 -8.47831e-05 -3.1421e-06)
(0 -9.11926e-05 -3.44358e-06)
(0 -0.000100765 -3.86262e-06)
(0 -0.000107558 -3.98972e-06)
(0 -0.000101032 -3.88717e-06)
(0 -7.3583e-05 -3.04789e-06)
(0 -5.46594e-05 -2.44562e-06)
(0 -5.62811e-05 -2.59033e-06)
(0 -5.5712e-05 -2.7059e-06)
(0 -5.19624e-05 -2.86875e-06)
(0 -5.1748e-05 -2.8909e-06)
(0 -2.72735e-05 -1.46374e-06)
(0 -2.12501e-05 -1.32378e-06)
(0 -1.78455e-05 -1.35903e-06)
(0 -6.63407e-06 -7.84798e-07)
(0 -0.000536416 -1.56932e-05)
(0 -0.000486429 -8.73589e-06)
(0 -0.000466553 -5.50284e-06)
(0 -0.000656751 -5.31679e-06)
(0 -0.000449596 -2.56609e-06)
(0 -0.000450924 -1.84329e-06)
(0 -0.000584806 -1.72789e-06)
(0 -0.00052407 -1.12516e-06)
(0 -0.000586398 -9.17651e-07)
(0 -0.000665142 -7.60062e-07)
(0 -0.000434055 -3.6257e-07)
(0 -0.000554875 -3.39024e-07)
(0 -0.000587708 -2.62751e-07)
(0 -0.000555191 -1.81658e-07)
(0 -0.000555289 -1.32979e-07)
(0 -0.000588028 -1.03057e-07)
(0 -0.000499871 -6.40968e-08)
(0 -0.000416588 -3.90597e-08)
(0 -0.000499931 -3.42358e-08)
(0 -0.000454499 -2.26835e-08)
(0 -0.000666617 -2.41478e-08)
(0 -0.000499972 -1.30429e-08)
(0 -0.000526294 -9.73898e-09)
(0 -0.000454531 -5.78821e-09)
(0 -0.000454534 -3.73227e-09)
(0 -0.000555544 -2.49555e-09)
(0 -0.000588224 -7.13447e-10)
(0 -0.000526305 1.02509e-09)
(0 -0.000416658 2.20811e-09)
(0 -0.000416656 3.82145e-09)
(0 -0.000588216 8.20256e-09)
(0 -0.000666637 1.33921e-08)
(0 -0.0005882 1.6594e-08)
(0 -0.000588188 2.30081e-08)
(0 -0.000666594 3.59239e-08)
(0 -0.000555473 4.1114e-08)
(0 -0.000454453 4.61379e-08)
(0 -0.000555401 7.73261e-08)
(0 -0.000416508 7.95665e-08)
(0 -0.00049974 1.31145e-07)
(0 -0.00041637 1.50384e-07)
(0 -0.000555013 2.76635e-07)
(0 -0.000499329 3.44765e-07)
(0 -0.000554531 5.33227e-07)
(0 -0.000623411 8.41165e-07)
(0 -0.000498242 9.53505e-07)
(0 -0.000585368 1.61355e-06)
(0 -0.000431835 1.7534e-06)
(0 -0.000660384 4.08123e-06)
(0 -0.000448679 4.42555e-06)
(0 -0.000655646 1.10271e-05)
(0 -0.000518031 1.59751e-05)
(0 -0.000494619 1.8787e-05)
(0 -0.000389665 -1.73071e-05)
(0 -0.000605404 -4.89538e-05)
(0 -0.000446104 -2.85157e-05)
(0 -0.000287819 -1.40095e-05)
(0 -0.000424134 -1.80168e-05)
(0 -0.000268288 -1.07893e-05)
(0 -0.000228791 -8.04047e-06)
(0 -0.000236232 -7.15754e-06)
(0 -0.000277667 -8.0643e-06)
(0 -0.000253117 -7.10966e-06)
(0 -0.00024365 -6.74425e-06)
(0 -0.000222972 -5.5851e-06)
(0 -0.000254145 -6.37752e-06)
(0 -0.000262556 -6.62901e-06)
(0 -0.00017592 -4.43587e-06)
(0 -0.000205871 -4.99266e-06)
(0 -0.000171403 -4.34844e-06)
(0 -0.000181997 -4.674e-06)
(0 -0.000175726 -4.57371e-06)
(0 -0.000169584 -4.34431e-06)
(0 -0.000155556 -3.83039e-06)
(0 -0.000165997 -4.28167e-06)
(0 -0.000160093 -4.42957e-06)
(0 -0.000126504 -3.7336e-06)
(0 -0.000164941 -4.81536e-06)
(0 -0.00015912 -4.74377e-06)
(0 -0.000123223 -3.70762e-06)
(0 -0.000106892 -3.05922e-06)
(0 -0.000123514 -3.79911e-06)
(0 -0.000111558 -3.3912e-06)
(0 -0.000125167 -3.78401e-06)
(0 -0.000100734 -3.21162e-06)
(0 -9.48415e-05 -3.12703e-06)
(0 -8.44708e-05 -2.79086e-06)
(0 -7.85421e-05 -2.80736e-06)
(0 -0.000103387 -3.92991e-06)
(0 -9.70925e-05 -3.71887e-06)
(0 -7.05908e-05 -2.73771e-06)
(0 -6.08209e-05 -2.34323e-06)
(0 -6.49535e-05 -2.73307e-06)
(0 -5.83979e-05 -2.72184e-06)
(0 -3.51472e-05 -1.75337e-06)
(0 -3.14028e-05 -1.86721e-06)
(0 -3.81117e-05 -2.17096e-06)
(0 -3.05609e-05 -1.77719e-06)
(0 -1.56313e-05 -1.04884e-06)
(0 -6.62395e-06 -5.6348e-07)
(0 -0.000393964 -5.16026e-06)
(0 -0.000567481 -4.0117e-06)
(0 -0.0005421 -2.35726e-06)
(0 -0.000427332 -1.23455e-06)
(0 -0.000658454 -1.31935e-06)
(0 -0.000582983 -8.29594e-07)
(0 -0.000496749 -5.08641e-07)
(0 -0.000414689 -3.07788e-07)
(0 -0.000498265 -2.69189e-07)
(0 -0.000433679 -1.70953e-07)
(0 -0.00062384 -1.79679e-07)
(0 -0.000453928 -9.56059e-08)
(0 -0.000475717 -7.33035e-08)
(0 -0.000525933 -5.93053e-08)
(0 -0.000475937 -3.9277e-08)
(0 -0.000416504 -2.5154e-08)
(0 -0.000434658 -1.92053e-08)
(0 -0.000624869 -2.01882e-08)
(0 -0.000666565 -1.57286e-08)
(0 -0.000526257 -9.04987e-09)
(0 -0.000588187 -7.3413e-09)
(0 -0.000476161 -4.27983e-09)
(0 -0.000434763 -2.77181e-09)
(0 -0.000499982 -2.19349e-09)
(0 -0.000526301 -1.48866e-09)
(0 -0.000434772 -6.72613e-10)
(0 -0.000666652 -2.78077e-10)
(0 -0.000454536 3.05424e-10)
(0 -0.000454534 8.30424e-10)
(0 -0.00043477 1.37447e-09)
(0 -0.000588213 2.82719e-09)
(0 -0.000624969 4.32742e-09)
(0 -0.000526281 5.11767e-09)
(0 -0.000499956 6.74158e-09)
(0 -0.000416616 7.74066e-09)
(0 -0.000476112 1.21516e-08)
(0 -0.000624859 2.18805e-08)
(0 -0.000476044 2.28677e-08)
(0 -0.000499789 3.29577e-08)
(0 -0.000526011 4.76823e-08)
(0 -0.000499603 6.23885e-08)
(0 -0.000454049 7.83502e-08)
(0 -0.000434129 1.03972e-07)
(0 -0.000623703 2.08617e-07)
(0 -0.000664747 3.13333e-07)
(0 -0.000414992 2.79315e-07)
(0 -0.000523334 5.13042e-07)
(0 -0.000413292 6.08551e-07)
(0 -0.000429628 9.97844e-07)
(0 -0.000426938 1.69255e-06)
(0 -0.000539239 4.12948e-06)
(0 -0.000498084 8.63936e-06)
(0 -0.000401632 9.77171e-06)
(0 -0.000538177 -2.19611e-05)
(0 -0.000387264 -1.80028e-05)
(0 -0.000318326 -1.09941e-05)
(0 -0.000334065 -7.43846e-06)
(0 -0.000309082 -6.62609e-06)
(0 -0.000222784 -4.50375e-06)
(0 -0.000206608 -3.74043e-06)
(0 -0.000303698 -4.64433e-06)
(0 -0.000243389 -3.87535e-06)
(0 -0.000181296 -3.01931e-06)
(0 -0.000165202 -2.71354e-06)
(0 -0.000212599 -3.06442e-06)
(0 -0.000194865 -2.85152e-06)
(0 -0.000188658 -2.78173e-06)
(0 -0.000156787 -2.24685e-06)
(0 -0.000196868 -2.7111e-06)
(0 -0.000153822 -2.2079e-06)
(0 -0.000148219 -2.20087e-06)
(0 -0.000142819 -2.14645e-06)
(0 -0.000137493 -2.03663e-06)
(0 -0.000175248 -2.3988e-06)
(0 -0.000182274 -2.58892e-06)
(0 -0.000114083 -1.84863e-06)
(0 -0.000108982 -1.82139e-06)
(0 -0.000120418 -2.06938e-06)
(0 -0.000109986 -1.94197e-06)
(0 -9.55209e-05 -1.66715e-06)
(0 -0.000141434 -2.20543e-06)
(0 -0.000101398 -1.76482e-06)
(0 -9.15951e-05 -1.62817e-06)
(0 -0.000108147 -1.89808e-06)
(0 -0.000103345 -1.82493e-06)
(0 -7.4862e-05 -1.4196e-06)