/*--------------------------------*- C++ -*----------------------------------*\
| =========                 |                                                 |
| \\      /  F ield         | foam-extend: Open Source CFD                    |
|  \\    /   O peration     | Version:     5.0                                |
|   \\  /    A nd           | Web:         http://www.foam-extend.org         |
|    \\/     M anipulation  |                                                 |
\*---------------------------------------------------------------------------*/
FoamFile
{
    version     2.0;
    format      ascii;
    class       volScalarField;
    location    "1";
    object      alpha.gas;
}
// * * * * * * * * * * * * * * * * * * * * * * * * * * * * * * * * * * * * * //

dimensions      [0 0 0 0 0 0 0];

internalField   nonuniform List<scalar> 
100
(
0.0904709
0.0737567
0.0646611
0.0584544
0.0539482
0.0503608
0.0474108
0.0448298
0.0425848
0.0405896
0.0388494
0.0372093
0.0357107
0.0343113
0.0330065
0.0317418
0.0305733
0.0294719
0.028428
0.0274041
0.0264082
0.0254433
0.0244936
0.0235592
0.0226465
0.0217506
0.0208637
0.0199956
0.0191422
0.0182999
0.0174631
0.0166478
0.0158608
0.0151058
0.0143916
0.013726
0.0131132
0.0125647
0.0120817
0.0116647
0.0113115
0.011019
0.0107866
0.0105998
0.0104523
0.0103391
0.0102531
0.0101872
0.0101369
0.0100997
0.0100732
0.0100519
0.0100357
0.0100247
0.0100165
0.0100118
0.0100083
0.0100056
0.010004
0.0100011
0.0100006
0.0100011
0.0100003
0.0100019
0.0100024
0.0100007
0.00999885
0.0099998
0.01
0.00999765
0.0100005
0.00999874
0.00999981
0.00999986
0.01
0.00999956
0.00999931
0.00999928
0.00999831
0.00999923
0.00999884
0.00999871
0.0099993
0.00999939
0.00999708
0.00999717
0.00999823
0.00999682
0.00999595
0.00999734
0.0100003
0.00999964
0.00999926
0.00999792
0.00999812
0.00999623
0.009996
0.00999519
0.00999537
0.0099921
)
;

boundaryField
{
    inlet
    {
        type            fixedValue;
        value           uniform 0.2;
    }
    outlet
    {
        type            zeroGradient;
    }
    yzfaces
    {
        type            empty;
    }
}


// ************************************************************************* //
