/*--------------------------------*- C++ -*----------------------------------*\
| =========                 |                                                 |
| \\      /  F ield         | foam-extend: Open Source CFD                    |
|  \\    /   O peration     | Version:     5.0                                |
|   \\  /    A nd           | Web:         http://www.foam-extend.org         |
|    \\/     M anipulation  |                                                 |
\*---------------------------------------------------------------------------*/
FoamFile
{
    version     2.0;
    format      ascii;
    class       volScalarField;
    location    "1";
    object      H2O.gas;
}
// * * * * * * * * * * * * * * * * * * * * * * * * * * * * * * * * * * * * * //

dimensions      [0 0 0 0 0 0 0];

internalField   nonuniform List<scalar> 
100
(
2.0732e-07
8.89983e-07
2.63365e-06
6.46128e-06
1.40729e-05
2.79659e-05
5.16698e-05
9.00124e-05
0.000149372
0.000237435
0.000363819
0.000538962
0.000774806
0.00108338
0.00147673
0.0019638
0.00255531
0.00325706
0.00406429
0.00497059
0.00596558
0.00702779
0.00812609
0.00922621
0.0102992
0.0113027
0.0122019
0.0129642
0.0135678
0.0139895
0.0142213
0.0142821
0.0141866
0.0139578
0.0136298
0.0132357
0.0128087
0.0123829
0.0119763
0.0116072
0.0112777
0.0109985
0.0107753
0.0105933
0.0104455
0.0103354
0.0102517
0.0101847
0.0101356
0.0100988
0.0100733
0.0100494
0.0100341
0.0100255
0.010018
0.0100114
0.0100087
0.0100061
0.0100036
0.0100036
0.010001
0.0100009
0.0100023
0.0100031
0.0100023
0.00999976
0.00999909
0.00999738
0.00999697
0.00999476
0.010001
0.00999689
0.0099989
0.00999836
0.00999959
0.00999898
0.00999926
0.00999906
0.00999835
0.0100021
0.00999972
0.00999907
0.0100024
0.0100008
0.00999507
0.00999568
0.00999936
0.00999645
0.00999934
0.0100015
0.0100032
0.0100005
0.00999947
0.00999637
0.00999723
0.00999625
0.00999577
0.00999549
0.00999425
0.00999252
)
;

boundaryField
{
    inlet
    {
        type            fixedValue;
        value           uniform 0;
    }
    outlet
    {
        type            zeroGradient;
    }
    yzfaces
    {
        type            empty;
    }
}


// ************************************************************************* //
