/*--------------------------------*- C++ -*----------------------------------*\
| =========                 |                                                 |
| \\      /  F ield         | foam-extend: Open Source CFD                    |
|  \\    /   O peration     | Version:     5.0                                |
|   \\  /    A nd           | Web:         http://www.foam-extend.org         |
|    \\/     M anipulation  |                                                 |
\*---------------------------------------------------------------------------*/
FoamFile
{
    version     2.0;
    format      ascii;
    class       volScalarField;
    location    "1";
    object      S.gas;
}
// * * * * * * * * * * * * * * * * * * * * * * * * * * * * * * * * * * * * * //

dimensions      [0 0 0 0 0 0 0];

internalField   nonuniform List<scalar> 
100
(
0.452355
0.368784
0.323306
0.292272
0.269741
0.251804
0.237054
0.224149
0.212924
0.202948
0.194247
0.186047
0.178554
0.171557
0.165033
0.158709
0.152867
0.14736
0.14214
0.137021
0.132041
0.127216
0.122468
0.117796
0.113233
0.108753
0.104319
0.0999779
0.0957109
0.0914994
0.0873156
0.0832389
0.079304
0.0755292
0.071958
0.0686299
0.0655661
0.0628234
0.0604085
0.0583236
0.0565576
0.0550951
0.0539331
0.0529988
0.0522614
0.0516956
0.0512657
0.0509361
0.0506843
0.0504984
0.0503661
0.0502594
0.0501787
0.0501233
0.0500823
0.0500591
0.0500414
0.0500282
0.0500201
0.0500055
0.0500029
0.0500054
0.0500016
0.0500093
0.0500119
0.0500035
0.0499942
0.049999
0.0500001
0.0499883
0.0500026
0.0499937
0.0499991
0.0499993
0.0500002
0.0499978
0.0499966
0.0499964
0.0499915
0.0499961
0.0499942
0.0499936
0.0499965
0.049997
0.0499854
0.0499859
0.0499911
0.0499841
0.0499797
0.0499867
0.0500017
0.0499982
0.0499963
0.0499896
0.0499906
0.0499811
0.04998
0.0499759
0.0499769
0.0499605
)
;

boundaryField
{
    inlet
    {
        type            calculated;
        value           uniform 1;
    }
    outlet
    {
        type            calculated;
        value           uniform 0.0499605;
    }
    yzfaces
    {
        type            empty;
    }
}


// ************************************************************************* //
