/*--------------------------------*- C++ -*----------------------------------*\
| =========                 |                                                 |
| \\      /  F ield         | foam-extend: Open Source CFD                    |
|  \\    /   O peration     | Version:     5.0                                |
|   \\  /    A nd           | Web:         http://www.foam-extend.org         |
|    \\/     M anipulation  |                                                 |
\*---------------------------------------------------------------------------*/
FoamFile
{
    version     2.0;
    format      ascii;
    class       volScalarField;
    location    "2000";
    object      alpha.gas;
}
// * * * * * * * * * * * * * * * * * * * * * * * * * * * * * * * * * * * * * //

dimensions      [0 0 0 0 0 0 0];

internalField   nonuniform List<scalar> 
1000
(
0
0
0
0
0
0
0
0
0
0
0
0
0
0
0
0
0
0
0
0
0
0
0
0
0
0
0
0
0
0
0
0
0
0
0
0
0
0
0
0
0
0
0
0
0
0
0
0
0
0
0
0
0
0
0
0
0
0
0
0
0
0
0
0
0
0
0
0
0
0
0
0
0
0
0
0
0
0
0
0
0
3.61884e-11
3.23982e-06
0.00132019
0.0193813
0.0537151
0.0771474
0.0906652
0.0997343
0.117497
0.124876
0.143559
0.126021
0.105187
0.142982
0.13537
0.178495
0.157577
0.174634
0.160507
0
0
0
0
0
0
0
0
0
0
0
0
0
0
0
0
0
0
0
0
0
0
0
0
0
0
0
0
0
0
0
0
0
0
0
0
0
0
0
0
0
0
0
0
0
0
0
0
0
0
0
0
0
0
0
0
0
0
0
0
0
0
0
0
0
0
0
0
0
0
0
0
0
0
0
0
0
0
0
0
8.96968e-11
5.18188e-06
0.00174738
0.0190556
0.0500227
0.0773112
0.114252
0.127825
0.0973218
0.113164
0.11779
0.0965522
0.125926
0.157983
0.13631
0.111757
0.15379
0.120687
0.200518
0.144393
0
0
0
0
0
0
0
0
0
0
0
0
0
0
0
0
0
0
0
0
0
0
0
0
0
0
0
0
0
0
0
0
0
0
0
0
0
0
0
0
0
0
0
0
0
0
0
0
0
0
0
0
0
0
0
0
0
0
0
0
0
0
0
0
0
0
0
0
0
0
0
0
0
0
0
0
0
0
0
0
9.52592e-17
8.11127e-09
7.7185e-05
0.00609604
0.0308319
0.0672672
0.0717923
0.108339
0.125291
0.12388
0.112882
0.142233
0.142451
0.141817
0.168677
0.176755
0.123811
0.128281
0.200108
0.152761
0
0
0
0
0
0
0
0
0
0
0
0
0
0
0
0
0
0
0
0
0
0
0
0
0
0
0
0
0
0
0
0
0
0
0
0
0
0
0
0
0
0
0
0
0
0
0
0
0
0
0
0
0
0
0
0
0
0
0
0
0
0
0
0
0
0
0
0
0
0
0
0
0
0
0
0
0
0
0
1.48264e-15
2.97212e-08
0.000130554
0.00813686
0.049939
0.0605124
0.0936428
0.0835271
0.0936022
0.109491
0.0962815
0.111948
0.109497
0.12638
0.165387
0.151399
0.142699
0.125007
0.153914
0.136136
0.161042
0
0
0
0
0
0
0
0
0
0
0
0
0
0
0
0
0
0
0
0
0
0
0
0
0
0
0
0
0
0
0
0
0
0
0
0
0
0
0
0
0
0
0
0
0
0
0
0
0
0
0
0
0
0
0
0
0
0
0
0
0
0
0
0
0
0
0
0
0
0
0
0
0
0
0
0
0
0
0
0
7.69679e-14
2.02468e-07
0.000284379
0.0120486
0.0417376
0.0791367
0.0947911
0.121403
0.110354
0.116333
0.127736
0.139595
0.15216
0.15192
0.122369
0.111674
0.130549
0.175466
0.151935
0.160814
0
0
0
0
0
0
0
0
0
0
0
0
0
0
0
0
0
0
0
0
0
0
0
0
0
0
0
0
0
0
0
0
0
0
0
0
0
0
0
0
0
0
0
0
0
0
0
0
0
0
0
0
0
0
0
0
0
0
0
0
0
0
0
0
0
0
0
0
0
0
0
0
0
0
0
0
0
0
0
0
1.34735e-13
2.81136e-07
0.000355292
0.00963035
0.0393679
0.0573494
0.0769631
0.109971
0.126495
0.130285
0.107611
0.105391
0.140853
0.120123
0.165604
0.115644
0.119374
0.185256
0.196214
0.201679
0
0
0
0
0
0
0
0
0
0
0
0
0
0
0
0
0
0
0
0
0
0
0
0
0
0
0
0
0
0
0
0
0
0
0
0
0
0
0
0
0
0
0
0
0
0
0
0
0
0
0
0
0
0
0
0
0
0
0
0
0
0
0
0
0
0
0
0
0
0
0
0
0
0
0
0
0
0
0
0
2.35173e-09
2.98767e-05
0.00402861
0.0276005
0.0679321
0.0915935
0.105084
0.0921653
0.119254
0.11333
0.124036
0.096669
0.11269
0.157371
0.114324
0.110617
0.182482
0.144396
0.184767
0.144054
0
0
0
0
0
0
0
0
0
0
0
0
0
0
0
0
0
0
0
0
0
0
0
0
0
0
0
0
0
0
0
0
0
0
0
0
0
0
0
0
0
0
0
0
0
0
0
0
0
0
0
0
0
0
0
0
0
0
0
0
0
0
0
0
0
0
0
0
0
0
0
0
0
0
0
0
0
0
0
0
2.10553e-09
2.4895e-05
0.00394697
0.0357706
0.0587594
0.0991908
0.100525
0.0921846
0.085194
0.0881864
0.115279
0.144949
0.131701
0.122979
0.120116
0.109517
0.173001
0.173918
0.150181
0.193523
0
0
0
0
0
0
0
0
0
0
0
0
0
0
0
0
0
0
0
0
0
0
0
0
0
0
0
0
0
0
0
0
0
0
0
0
0
0
0
0
0
0
0
0
0
0
0
0
0
0
0
0
0
0
0
0
0
0
0
0
0
0
0
0
0
0
0
0
0
0
0
0
0
0
0
0
0
0
0
3.90244e-14
1.67647e-07
0.000279938
0.0104209
0.0394719
0.0735067
0.0913469
0.107345
0.115804
0.0874151
0.0902634
0.117777
0.128549
0.113361
0.116899
0.17025
0.163379
0.116526
0.120514
0.166715
0.18563
0
0
0
0
0
0
0
0
0
0
0
0
0
0
0
0
0
0
0
0
0
0
0
0
0
0
0
0
0
0
0
0
0
0
0
0
0
0
0
0
0
0
0
0
0
0
0
0
0
0
0
0
0
0
0
0
0
0
0
0
0
0
0
0
0
0
0
0
0
0
0
0
0
0
0
0
0
0
0
8.14715e-10
1.57733e-05
0.00277293
0.0303263
0.0589287
0.0760905
0.111062
0.0835031
0.0985944
0.126689
0.119678
0.130259
0.101036
0.117183
0.155767
0.110247
0.165728
0.157025
0.155394
0.162468
0.144826
)
;

boundaryField
{
    inlet
    {
        type            fixedValue;
        value           uniform 0.2;
    }
    outlet
    {
        type            zeroGradient;
    }
    walls
    {
        type            zeroGradient;
    }
}


// ************************************************************************* //
