/*--------------------------------*- C++ -*----------------------------------*\
| =========                 |                                                 |
| \\      /  F ield         | foam-extend: Open Source CFD                    |
|  \\    /   O peration     | Version:     5.0                                |
|   \\  /    A nd           | Web:         http://www.foam-extend.org         |
|    \\/     M anipulation  |                                                 |
\*---------------------------------------------------------------------------*/
FoamFile
{
    version     2.0;
    format      ascii;
    class       volScalarField;
    location    "2000";
    object      alpha.oil;
}
// * * * * * * * * * * * * * * * * * * * * * * * * * * * * * * * * * * * * * //

dimensions      [0 0 0 0 0 0 0];

internalField   nonuniform List<scalar> 
1000
(
0.18
0.16
0.22
0.19
0.23
0.17
0.16
0.15
0.18
0.2
0.2
0.16
0.19
0.18
0.18
0.22
0.24
0.22
0.15
0.23
0.17
0.24
0.19
0.18
0.15
0.19
0.23
0.18
0.22
0.23
0.21
0.2
0.22
0.22
0.19
0.24
0.24
0.23
0.16
0.19
0.18
0.17
0.19
0.21
0.2
0.19
0.21
0.15
0.16
0.22
0.23
0.18
0.23
0.2
0.15
0.18
0.16
0.23
0.24
0.24
0.22
0.21
0.21
0.22
0.15
0.24
0.21
0.2
0.16
0.15
0.21
0.15
0.2
0.22
0.23
0.24
0.2
0.23
0.19
0.21
0.22
0.19
0.149997
0.21868
0.180619
0.146285
0.122853
0.109335
0.100266
0.102503
0.0951243
0.0964414
0.0739785
0.0548129
0.0670179
0.05463
0.0615049
0.0424226
0.0353663
0.0194931
0.21
0.21
0.19
0.16
0.15
0.18
0.15
0.17
0.24
0.18
0.22
0.2
0.2
0.17
0.18
0.22
0.17
0.18
0.19
0.24
0.23
0.18
0.19
0.15
0.2
0.17
0.21
0.21
0.23
0.21
0.24
0.19
0.16
0.21
0.19
0.23
0.2
0.2
0.2
0.19
0.16
0.18
0.24
0.21
0.22
0.17
0.21
0.16
0.2
0.19
0.2
0.17
0.17
0.24
0.22
0.16
0.15
0.2
0.23
0.24
0.16
0.18
0.23
0.21
0.15
0.24
0.15
0.23
0.17
0.22
0.15
0.17
0.15
0.17
0.15
0.24
0.24
0.22
0.22
0.21
0.19
0.149995
0.218253
0.140944
0.119977
0.112689
0.125748
0.112175
0.0726782
0.0768359
0.0722096
0.0534478
0.0640738
0.0720171
0.05369
0.0382429
0.0462103
0.0293127
0.0394819
0.015607
0.23
0.17
0.15
0.19
0.17
0.22
0.21
0.23
0.17
0.15
0.21
0.16
0.2
0.2
0.17
0.15
0.24
0.24
0.22
0.19
0.16
0.23
0.19
0.2
0.22
0.16
0.19
0.21
0.19
0.23
0.16
0.21
0.22
0.2
0.19
0.16
0.2
0.16
0.17
0.15
0.16
0.22
0.19
0.16
0.2
0.2
0.23
0.2
0.16
0.24
0.15
0.16
0.22
0.22
0.2
0.2
0.2
0.18
0.19
0.22
0.16
0.21
0.18
0.18
0.18
0.24
0.22
0.18
0.16
0.17
0.22
0.21
0.21
0.24
0.19
0.18
0.19
0.16
0.21
0.15
0.2
0.16
0.239923
0.213904
0.139168
0.142733
0.0982077
0.121661
0.114709
0.0961198
0.0771179
0.087767
0.0775492
0.0681826
0.0713231
0.0632453
0.036189
0.0317191
0.0398923
0.0172393
0.21
0.19
0.17
0.23
0.22
0.16
0.23
0.19
0.19
0.18
0.15
0.22
0.21
0.24
0.2
0.18
0.15
0.15
0.22
0.19
0.16
0.2
0.17
0.22
0.19
0.18
0.21
0.16
0.21
0.24
0.22
0.24
0.15
0.24
0.16
0.18
0.24
0.2
0.24
0.16
0.23
0.24
0.19
0.18
0.2
0.15
0.23
0.2
0.18
0.16
0.17
0.19
0.17
0.19
0.16
0.23
0.22
0.19
0.18
0.16
0.21
0.24
0.22
0.23
0.17
0.15
0.2
0.16
0.23
0.21
0.18
0.24
0.17
0.24
0.21
0.18
0.21
0.18
0.22
0.18
0.21
0.209869
0.211863
0.180061
0.0894876
0.106357
0.0764729
0.0763978
0.0805087
0.0637185
0.0680521
0.0605034
0.0636197
0.0746126
0.0586012
0.0473009
0.0349927
0.0360856
0.0238635
0.0189585
0.15
0.24
0.17
0.23
0.24
0.23
0.19
0.23
0.15
0.22
0.17
0.17
0.24
0.24
0.21
0.22
0.19
0.15
0.16
0.17
0.24
0.24
0.2
0.22
0.24
0.2
0.23
0.24
0.16
0.23
0.2
0.22
0.22
0.16
0.17
0.21
0.21
0.22
0.21
0.24
0.15
0.2
0.2
0.2
0.21
0.16
0.19
0.23
0.22
0.21
0.2
0.16
0.23
0.15
0.15
0.21
0.21
0.19
0.17
0.2
0.18
0.18
0.23
0.15
0.2
0.22
0.2
0.16
0.2
0.24
0.22
0.21
0.16
0.16
0.21
0.15
0.15
0.24
0.16
0.24
0.24
0.2
0.179716
0.227951
0.138262
0.140863
0.115209
0.118597
0.089646
0.0836671
0.0822638
0.0804054
0.0778401
0.0680802
0.0476307
0.0383256
0.0394509
0.0445339
0.0280654
0.0191863
0.2
0.22
0.2
0.19
0.17
0.17
0.21
0.24
0.18
0.16
0.22
0.2
0.18
0.17
0.17
0.16
0.18
0.16
0.16
0.19
0.23
0.16
0.21
0.15
0.22
0.15
0.2
0.17
0.24
0.16
0.22
0.19
0.21
0.23
0.15
0.18
0.18
0.22
0.23
0.15
0.2
0.18
0.16
0.22
0.19
0.2
0.15
0.15
0.15
0.15
0.18
0.16
0.22
0.21
0.19
0.16
0.18
0.19
0.15
0.23
0.16
0.22
0.19
0.24
0.19
0.22
0.23
0.15
0.24
0.22
0.16
0.23
0.23
0.19
0.19
0.21
0.2
0.19
0.19
0.23
0.23
0.21
0.189645
0.16037
0.140632
0.102651
0.103037
0.120029
0.113505
0.0997149
0.0723888
0.0646086
0.0791469
0.0598775
0.0743957
0.0443559
0.0406256
0.0547436
0.0437859
0.0283206
0.18
0.15
0.16
0.22
0.19
0.21
0.23
0.23
0.15
0.19
0.17
0.24
0.21
0.22
0.23
0.23
0.18
0.24
0.17
0.22
0.17
0.2
0.19
0.2
0.17
0.15
0.2
0.18
0.15
0.2
0.22
0.16
0.2
0.18
0.19
0.23
0.24
0.22
0.15
0.19
0.15
0.18
0.21
0.24
0.17
0.22
0.2
0.24
0.2
0.23
0.16
0.15
0.15
0.23
0.16
0.21
0.18
0.24
0.2
0.19
0.15
0.18
0.19
0.22
0.15
0.18
0.16
0.2
0.18
0.2
0.23
0.15
0.18
0.21
0.24
0.2
0.18
0.24
0.21
0.18
0.16
0.16997
0.215971
0.1424
0.142068
0.118407
0.104916
0.0778347
0.0907464
0.0766698
0.0759639
0.053331
0.0573098
0.0726289
0.0456764
0.039383
0.0575177
0.0356041
0.0352327
0.0159461
0.19
0.15
0.19
0.17
0.21
0.19
0.16
0.24
0.23
0.22
0.23
0.18
0.18
0.22
0.23
0.21
0.18
0.19
0.16
0.16
0.21
0.21
0.24
0.24
0.15
0.15
0.15
0.17
0.2
0.18
0.18
0.21
0.22
0.16
0.15
0.17
0.23
0.23
0.23
0.17
0.2
0.16
0.24
0.18
0.23
0.24
0.24
0.17
0.24
0.15
0.21
0.18
0.23
0.19
0.18
0.2
0.24
0.15
0.15
0.21
0.2
0.17
0.24
0.16
0.24
0.18
0.15
0.2
0.22
0.19
0.2
0.19
0.21
0.24
0.16
0.23
0.15
0.17
0.15
0.17
0.24
0.149975
0.236053
0.194229
0.111241
0.130809
0.0994746
0.0778154
0.064806
0.0618136
0.0747215
0.085051
0.0682988
0.0570209
0.0498841
0.0404829
0.0569991
0.0460817
0.029819
0.0264771
0.18
0.2
0.21
0.15
0.22
0.22
0.17
0.19
0.17
0.15
0.23
0.18
0.17
0.18
0.18
0.17
0.2
0.24
0.2
0.22
0.15
0.2
0.19
0.22
0.22
0.18
0.17
0.19
0.24
0.24
0.17
0.15
0.17
0.17
0.15
0.18
0.22
0.18
0.24
0.2
0.24
0.18
0.2
0.18
0.16
0.2
0.17
0.23
0.15
0.22
0.15
0.19
0.2
0.24
0.15
0.18
0.24
0.15
0.22
0.24
0.22
0.18
0.19
0.19
0.2
0.17
0.16
0.23
0.19
0.22
0.2
0.2
0.2
0.21
0.19
0.19
0.23
0.17
0.17
0.21
0.23
0.18972
0.189579
0.130528
0.126493
0.108653
0.102655
0.0941964
0.0625849
0.0597366
0.0722232
0.0714507
0.0566394
0.0531007
0.0697502
0.056621
0.0334739
0.0294855
0.0332852
0.0243705
0.24
0.17
0.18
0.23
0.15
0.17
0.2
0.24
0.2
0.23
0.16
0.22
0.21
0.19
0.21
0.24
0.23
0.16
0.15
0.19
0.17
0.21
0.23
0.2
0.19
0.23
0.15
0.22
0.22
0.23
0.17
0.16
0.19
0.2
0.24
0.21
0.16
0.21
0.2
0.19
0.2
0.22
0.23
0.16
0.15
0.24
0.19
0.24
0.23
0.23
0.18
0.19
0.22
0.16
0.2
0.21
0.18
0.18
0.23
0.23
0.15
0.18
0.23
0.24
0.18
0.19
0.19
0.22
0.17
0.21
0.21
0.21
0.21
0.16
0.15
0.23
0.23
0.2
0.21
0.23
0.149984
0.197227
0.179674
0.111071
0.0939095
0.108938
0.0664969
0.0714056
0.0833106
0.0703218
0.0697413
0.0489641
0.052817
0.0642332
0.0397533
0.0542719
0.0429749
0.034606
0.0275321
0.0151738
)
;

boundaryField
{
    inlet
    {
        type            fixedValue;
        value           uniform 0;
    }
    outlet
    {
        type            zeroGradient;
    }
    walls
    {
        type            zeroGradient;
    }
}


// ************************************************************************* //
