/*--------------------------------*- C++ -*----------------------------------*\
| =========                 |                                                 |
| \\      /  F ield         | foam-extend: Open Source CFD                    |
|  \\    /   O peration     | Version:     5.0                                |
|   \\  /    A nd           | Web:         http://www.foam-extend.org         |
|    \\/     M anipulation  |                                                 |
\*---------------------------------------------------------------------------*/
FoamFile
{
    version     2.0;
    format      ascii;
    class       volScalarField;
    location    "2000";
    object      p;
}
// * * * * * * * * * * * * * * * * * * * * * * * * * * * * * * * * * * * * * //

dimensions      [1 -1 -2 0 0 0 0];

internalField   nonuniform List<scalar> 
1000
(
0.101067
0.103151
0.105208
0.107248
0.109277
0.111297
0.113312
0.115323
0.117331
0.119337
0.121341
0.123345
0.125347
0.127349
0.12935
0.131351
0.133351
0.135352
0.137352
0.139352
0.141353
0.143353
0.145353
0.147353
0.149353
0.151353
0.153353
0.155353
0.157353
0.159353
0.161353
0.163353
0.165353
0.167353
0.169353
0.171353
0.173353
0.175353
0.177353
0.179353
0.181353
0.183353
0.185353
0.187353
0.189353
0.191353
0.193353
0.195353
0.197353
0.199353
0.201353
0.203353
0.205353
0.207353
0.209353
0.211353
0.213353
0.215353
0.217353
0.219353
0.221353
0.223353
0.225353
0.227354
0.229354
0.231354
0.233354
0.235354
0.237355
0.239355
0.241356
0.243357
0.245358
0.247359
0.249362
0.251365
0.253369
0.255374
0.257381
0.259391
0.261407
0.263435
0.265498
0.267677
0.27024
0.273187
0.276026
0.278667
0.281145
0.283498
0.285733
0.287863
0.289886
0.29181
0.293643
0.295368
0.296998
0.298502
0.299893
0.301125
0.101038
0.1031
0.105147
0.107181
0.109206
0.111224
0.113238
0.115248
0.117255
0.11926
0.121264
0.123267
0.125269
0.127271
0.129272
0.131272
0.133273
0.135274
0.137274
0.139274
0.141274
0.143274
0.145274
0.147275
0.149275
0.151275
0.153275
0.155275
0.157275
0.159275
0.161275
0.163275
0.165275
0.167275
0.169275
0.171275
0.173275
0.175275
0.177275
0.179275
0.181275
0.183275
0.185275
0.187275
0.189275
0.191275
0.193275
0.195275
0.197275
0.199275
0.201275
0.203275
0.205275
0.207275
0.209275
0.211275
0.213275
0.215275
0.217275
0.219275
0.221275
0.223275
0.225275
0.227275
0.229275
0.231275
0.233275
0.235276
0.237276
0.239276
0.241277
0.243278
0.245279
0.24728
0.249282
0.251285
0.253289
0.255293
0.257299
0.259307
0.261316
0.263322
0.26533
0.26763
0.270386
0.27327
0.276052
0.278668
0.281127
0.283473
0.285706
0.287833
0.289867
0.291802
0.293628
0.295347
0.296971
0.298476
0.299881
0.301107
0.101023
0.103064
0.105097
0.107123
0.109142
0.111157
0.113167
0.115175
0.117181
0.119185
0.121188
0.12319
0.125192
0.127193
0.129194
0.131194
0.133195
0.135195
0.137196
0.139196
0.141196
0.143196
0.145196
0.147196
0.149196
0.151196
0.153196
0.155196
0.157196
0.159196
0.161196
0.163196
0.165196
0.167196
0.169196
0.171196
0.173196
0.175196
0.177196
0.179196
0.181196
0.183196
0.185196
0.187196
0.189196
0.191196
0.193196
0.195196
0.197196
0.199196
0.201196
0.203196
0.205196
0.207196
0.209196
0.211196
0.213196
0.215196
0.217196
0.219196
0.221196
0.223196
0.225196
0.227196
0.229197
0.231197
0.233197
0.235197
0.237197
0.239198
0.241198
0.243199
0.2452
0.247201
0.249203
0.251205
0.253208
0.255212
0.257216
0.259222
0.261228
0.263238
0.265287
0.267554
0.270336
0.273259
0.276031
0.278656
0.281123
0.283458
0.285686
0.28782
0.289853
0.291786
0.293617
0.295338
0.296946
0.298457
0.299862
0.301095
0.101013
0.103036
0.105056
0.107071
0.109083
0.111092
0.113099
0.115104
0.117108
0.11911
0.121112
0.123114
0.125115
0.127116
0.129116
0.131117
0.133117
0.135117
0.137117
0.139117
0.141118
0.143118
0.145118
0.147118
0.149118
0.151118
0.153118
0.155118
0.157118
0.159118
0.161118
0.163118
0.165118
0.167118
0.169118
0.171118
0.173118
0.175118
0.177118
0.179118
0.181118
0.183118
0.185118
0.187118
0.189118
0.191118
0.193118
0.195118
0.197118
0.199118
0.201118
0.203118
0.205118
0.207118
0.209118
0.211118
0.213118
0.215118
0.217118
0.219118
0.221118
0.223118
0.225118
0.227118
0.229118
0.231118
0.233118
0.235118
0.237118
0.239119
0.241119
0.243119
0.24512
0.247121
0.249122
0.251124
0.253126
0.255129
0.257133
0.259136
0.261135
0.263117
0.265153
0.267644
0.270464
0.273318
0.276041
0.278638
0.281098
0.283431
0.285661
0.287792
0.289829
0.291766
0.293591
0.29531
0.296927
0.298446
0.299836
0.301084
0.101004
0.103012
0.105018
0.107023
0.109027
0.111031
0.113033
0.115035
0.117036
0.119037
0.121037
0.123038
0.125038
0.127039
0.129039
0.131039
0.133039
0.135039
0.137039
0.139039
0.141039
0.143039
0.145039
0.147039
0.149039
0.151039
0.153039
0.155039
0.157039
0.159039
0.161039
0.163039
0.165039
0.167039
0.169039
0.171039
0.173039
0.175039
0.177039
0.179039
0.181039
0.183039
0.185039
0.187039
0.189039
0.191039
0.193039
0.195039
0.197039
0.199039
0.201039
0.203039
0.205039
0.207039
0.209039
0.211039
0.213039
0.215039
0.217039
0.219039
0.221039
0.223039
0.225039
0.227039
0.229039
0.231039
0.233039
0.235039
0.23704
0.23904
0.24104
0.24304
0.24504
0.247041
0.249041
0.251042
0.253044
0.255046
0.257049
0.259054
0.261063
0.263082
0.265145
0.267475
0.270367
0.273298
0.276052
0.27865
0.281094
0.283421
0.285645
0.287774
0.289808
0.291737
0.293559
0.295279
0.296909
0.298439
0.299831
0.301081
0.100996
0.102988
0.104982
0.106977
0.108973
0.110969
0.112967
0.114965
0.116964
0.118963
0.120963
0.122962
0.124962
0.126962
0.128961
0.130961
0.132961
0.134961
0.136961
0.138961
0.140961
0.142961
0.144961
0.146961
0.148961
0.150961
0.152961
0.154961
0.156961
0.158961
0.160961
0.162961
0.164961
0.166961
0.168961
0.170961
0.172961
0.174961
0.176961
0.178961
0.180961
0.182961
0.184961
0.186961
0.188961
0.190961
0.192961
0.194961
0.196961
0.198961
0.200961
0.202961
0.204961
0.206961
0.208961
0.210961
0.212961
0.214961
0.216961
0.218961
0.220961
0.222961
0.224961
0.226961
0.228961
0.230961
0.232961
0.234961
0.236961
0.238961
0.24096
0.24296
0.24496
0.24696
0.24896
0.25096
0.25296
0.254961
0.256963
0.258969
0.26098
0.263008
0.265082
0.267449
0.270352
0.273288
0.276043
0.278638
0.281083
0.283403
0.285615
0.287737
0.289773
0.291702
0.293535
0.295255
0.29689
0.298427
0.29983
0.301084
0.100987
0.102964
0.104944
0.106929
0.108917
0.110908
0.112901
0.114896
0.116892
0.11889
0.120888
0.122886
0.124885
0.126884
0.128884
0.130883
0.132883
0.134883
0.136883
0.138883
0.140883
0.142883
0.144882
0.146882
0.148882
0.150882
0.152882
0.154882
0.156882
0.158882
0.160882
0.162882
0.164882
0.166882
0.168882
0.170882
0.172882
0.174882
0.176882
0.178882
0.180882
0.182882
0.184882
0.186882
0.188882
0.190882
0.192882
0.194882
0.196882
0.198882
0.200882
0.202882
0.204882
0.206882
0.208882
0.210882
0.212882
0.214882
0.216882
0.218882
0.220882
0.222882
0.224882
0.226882
0.228882
0.230882
0.232882
0.234882
0.236882
0.238882
0.240881
0.242881
0.24488
0.24688
0.248879
0.250878
0.252876
0.254875
0.256875
0.258877
0.260883
0.262894
0.264966
0.267533
0.270484
0.273364
0.276066
0.278615
0.28105
0.283368
0.285588
0.287707
0.289739
0.291677
0.293503
0.295235
0.296883
0.298405
0.29981
0.301055
0.100977
0.102936
0.104903
0.106877
0.108858
0.110844
0.112833
0.114825
0.116819
0.118815
0.120812
0.12281
0.124808
0.126807
0.128806
0.130806
0.132805
0.134805
0.136805
0.138804
0.140804
0.142804
0.144804
0.146804
0.148804
0.150804
0.152804
0.154804
0.156804
0.158804
0.160804
0.162804
0.164804
0.166804
0.168804
0.170804
0.172804
0.174804
0.176804
0.178804
0.180804
0.182804
0.184804
0.186804
0.188804
0.190804
0.192804
0.194804
0.196804
0.198804
0.200804
0.202804
0.204804
0.206804
0.208804
0.210804
0.212804
0.214804
0.216804
0.218804
0.220804
0.222804
0.224804
0.226804
0.228804
0.230803
0.232803
0.234803
0.236803
0.238803
0.240802
0.242801
0.2448
0.246799
0.248798
0.250795
0.252792
0.254789
0.256784
0.258781
0.26078
0.262794
0.264908
0.267573
0.270557
0.273416
0.276081
0.278605
0.281018
0.283334
0.285561
0.28769
0.289716
0.291648
0.293482
0.295217
0.296862
0.298384
0.299781
0.301045
0.100962
0.1029
0.104854
0.106819
0.108794
0.110776
0.112762
0.114752
0.116745
0.11874
0.120736
0.122733
0.124731
0.12673
0.128728
0.130728
0.132727
0.134727
0.136726
0.138726
0.140726
0.142726
0.144726
0.146726
0.148726
0.150725
0.152725
0.154725
0.156725
0.158725
0.160725
0.162725
0.164725
0.166725
0.168725
0.170725
0.172725
0.174725
0.176725
0.178725
0.180725
0.182725
0.184725
0.186725
0.188725
0.190725
0.192725
0.194725
0.196725
0.198725
0.200725
0.202725
0.204725
0.206725
0.208725
0.210725
0.212725
0.214725
0.216725
0.218725
0.220725
0.222725
0.224725
0.226725
0.228725
0.230725
0.232725
0.234724
0.236724
0.238724
0.240723
0.242722
0.244721
0.246719
0.248717
0.250714
0.252709
0.254703
0.256694
0.258681
0.260665
0.26266
0.264875
0.267685
0.270635
0.273445
0.276088
0.278602
0.281002
0.283312
0.285537
0.287661
0.289688
0.291626
0.293473
0.295211
0.296835
0.298353
0.299759
0.301019
0.100933
0.102849
0.104792
0.106752
0.108723
0.110703
0.112688
0.114677
0.116669
0.118663
0.120659
0.122655
0.124653
0.126651
0.12865
0.130649
0.132649
0.134648
0.136648
0.138648
0.140647
0.142647
0.144647
0.146647
0.148647
0.150647
0.152647
0.154647
0.156647
0.158647
0.160647
0.162647
0.164647
0.166647
0.168647
0.170647
0.172647
0.174647
0.176647
0.178647
0.180647
0.182647
0.184647
0.186647
0.188647
0.190647
0.192647
0.194647
0.196647
0.198647
0.200647
0.202647
0.204647
0.206647
0.208647
0.210647
0.212647
0.214647
0.216647
0.218647
0.220647
0.222647
0.224647
0.226647
0.228647
0.230646
0.232646
0.234646
0.236646
0.238645
0.240644
0.242643
0.244642
0.24664
0.248637
0.250634
0.252628
0.254619
0.256606
0.258584
0.260544
0.262515
0.264905
0.267797
0.270684
0.273462
0.276072
0.278585
0.280997
0.283303
0.285519
0.287634
0.289667
0.291613
0.293448
0.295197
0.296827
0.298343
0.29974
0.300985
)
;

boundaryField
{
    inlet
    {
        type            fluxPressure;
        gradient        nonuniform List<scalar> 10(0.01 0.01 0.01 0.01 0.01 0.01 0.01 0.01 0.01 0.01);
        value           nonuniform List<scalar> 10(0.301625 0.301607 0.301595 0.301584 0.301581 0.301584 0.301555 0.301545 0.301519 0.301485);
    }
    outlet
    {
        type            fixedValue;
        value           uniform 0.1;
    }
    walls
    {
        type            fluxPressure;
        gradient        uniform 0;
        value           nonuniform List<scalar> 
2200
(
0.101067
0.103151
0.105208
0.107248
0.109277
0.111297
0.113312
0.115323
0.117331
0.119337
0.121341
0.123345
0.125347
0.127349
0.12935
0.131351
0.133351
0.135352
0.137352
0.139352
0.141353
0.143353
0.145353
0.147353
0.149353
0.151353
0.153353
0.155353
0.157353
0.159353
0.161353
0.163353
0.165353
0.167353
0.169353
0.171353
0.173353
0.175353
0.177353
0.179353
0.181353
0.183353
0.185353
0.187353
0.189353
0.191353
0.193353
0.195353
0.197353
0.199353
0.201353
0.203353
0.205353
0.207353
0.209353
0.211353
0.213353
0.215353
0.217353
0.219353
0.221353
0.223353
0.225353
0.227354
0.229354
0.231354
0.233354
0.235354
0.237355
0.239355
0.241356
0.243357
0.245358
0.247359
0.249362
0.251365
0.253369
0.255374
0.257381
0.259391
0.261407
0.263435
0.265498
0.267677
0.27024
0.273187
0.276026
0.278667
0.281145
0.283498
0.285733
0.287863
0.289886
0.29181
0.293643
0.295368
0.296998
0.298502
0.299893
0.301125
0.101038
0.1031
0.105147
0.107181
0.109206
0.111224
0.113238
0.115248
0.117255
0.11926
0.121264
0.123267
0.125269
0.127271
0.129272
0.131272
0.133273
0.135274
0.137274
0.139274
0.141274
0.143274
0.145274
0.147275
0.149275
0.151275
0.153275
0.155275
0.157275
0.159275
0.161275
0.163275
0.165275
0.167275
0.169275
0.171275
0.173275
0.175275
0.177275
0.179275
0.181275
0.183275
0.185275
0.187275
0.189275
0.191275
0.193275
0.195275
0.197275
0.199275
0.201275
0.203275
0.205275
0.207275
0.209275
0.211275
0.213275
0.215275
0.217275
0.219275
0.221275
0.223275
0.225275
0.227275
0.229275
0.231275
0.233275
0.235276
0.237276
0.239276
0.241277
0.243278
0.245279
0.24728
0.249282
0.251285
0.253289
0.255293
0.257299
0.259307
0.261316
0.263322
0.26533
0.26763
0.270386
0.27327
0.276052
0.278668
0.281127
0.283473
0.285706
0.287833
0.289867
0.291802
0.293628
0.295347
0.296971
0.298476
0.299881
0.301107
0.101023
0.103064
0.105097
0.107123
0.109142
0.111157
0.113167
0.115175
0.117181
0.119185
0.121188
0.12319
0.125192
0.127193
0.129194
0.131194
0.133195
0.135195
0.137196
0.139196
0.141196
0.143196
0.145196
0.147196
0.149196
0.151196
0.153196
0.155196
0.157196
0.159196
0.161196
0.163196
0.165196
0.167196
0.169196
0.171196
0.173196
0.175196
0.177196
0.179196
0.181196
0.183196
0.185196
0.187196
0.189196
0.191196
0.193196
0.195196
0.197196
0.199196
0.201196
0.203196
0.205196
0.207196
0.209196
0.211196
0.213196
0.215196
0.217196
0.219196
0.221196
0.223196
0.225196
0.227196
0.229197
0.231197
0.233197
0.235197
0.237197
0.239198
0.241198
0.243199
0.2452
0.247201
0.249203
0.251205
0.253208
0.255212
0.257216
0.259222
0.261228
0.263238
0.265287
0.267554
0.270336
0.273259
0.276031
0.278656
0.281123
0.283458
0.285686
0.28782
0.289853
0.291786
0.293617
0.295338
0.296946
0.298457
0.299862
0.301095
0.101013
0.103036
0.105056
0.107071
0.109083
0.111092
0.113099
0.115104
0.117108
0.11911
0.121112
0.123114
0.125115
0.127116
0.129116
0.131117
0.133117
0.135117
0.137117
0.139117
0.141118
0.143118
0.145118
0.147118
0.149118
0.151118
0.153118
0.155118
0.157118
0.159118
0.161118
0.163118
0.165118
0.167118
0.169118
0.171118
0.173118
0.175118
0.177118
0.179118
0.181118
0.183118
0.185118
0.187118
0.189118
0.191118
0.193118
0.195118
0.197118
0.199118
0.201118
0.203118
0.205118
0.207118
0.209118
0.211118
0.213118
0.215118
0.217118
0.219118
0.221118
0.223118
0.225118
0.227118
0.229118
0.231118
0.233118
0.235118
0.237118
0.239119
0.241119
0.243119
0.24512
0.247121
0.249122
0.251124
0.253126
0.255129
0.257133
0.259136
0.261135
0.263117
0.265153
0.267644
0.270464
0.273318
0.276041
0.278638
0.281098
0.283431
0.285661
0.287792
0.289829
0.291766
0.293591
0.29531
0.296927
0.298446
0.299836
0.301084
0.101004
0.103012
0.105018
0.107023
0.109027
0.111031
0.113033
0.115035
0.117036
0.119037
0.121037
0.123038
0.125038
0.127039
0.129039
0.131039
0.133039
0.135039
0.137039
0.139039
0.141039
0.143039
0.145039
0.147039
0.149039
0.151039
0.153039
0.155039
0.157039
0.159039
0.161039
0.163039
0.165039
0.167039
0.169039
0.171039
0.173039
0.175039
0.177039
0.179039
0.181039
0.183039
0.185039
0.187039
0.189039
0.191039
0.193039
0.195039
0.197039
0.199039
0.201039
0.203039
0.205039
0.207039
0.209039
0.211039
0.213039
0.215039
0.217039
0.219039
0.221039
0.223039
0.225039
0.227039
0.229039
0.231039
0.233039
0.235039
0.23704
0.23904
0.24104
0.24304
0.24504
0.247041
0.249041
0.251042
0.253044
0.255046
0.257049
0.259054
0.261063
0.263082
0.265145
0.267475
0.270367
0.273298
0.276052
0.27865
0.281094
0.283421
0.285645
0.287774
0.289808
0.291737
0.293559
0.295279
0.296909
0.298439
0.299831
0.301081
0.100996
0.102988
0.104982
0.106977
0.108973
0.110969
0.112967
0.114965
0.116964
0.118963
0.120963
0.122962
0.124962
0.126962
0.128961
0.130961
0.132961
0.134961
0.136961
0.138961
0.140961
0.142961
0.144961
0.146961
0.148961
0.150961
0.152961
0.154961
0.156961
0.158961
0.160961
0.162961
0.164961
0.166961
0.168961
0.170961
0.172961
0.174961
0.176961
0.178961
0.180961
0.182961
0.184961
0.186961
0.188961
0.190961
0.192961
0.194961
0.196961
0.198961
0.200961
0.202961
0.204961
0.206961
0.208961
0.210961
0.212961
0.214961
0.216961
0.218961
0.220961
0.222961
0.224961
0.226961
0.228961
0.230961
0.232961
0.234961
0.236961
0.238961
0.24096
0.24296
0.24496
0.24696
0.24896
0.25096
0.25296
0.254961
0.256963
0.258969
0.26098
0.263008
0.265082
0.267449
0.270352
0.273288
0.276043
0.278638
0.281083
0.283403
0.285615
0.287737
0.289773
0.291702
0.293535
0.295255
0.29689
0.298427
0.29983
0.301084
0.100987
0.102964
0.104944
0.106929
0.108917
0.110908
0.112901
0.114896
0.116892
0.11889
0.120888
0.122886
0.124885
0.126884
0.128884
0.130883
0.132883
0.134883
0.136883
0.138883
0.140883
0.142883
0.144882
0.146882
0.148882
0.150882
0.152882
0.154882
0.156882
0.158882
0.160882
0.162882
0.164882
0.166882
0.168882
0.170882
0.172882
0.174882
0.176882
0.178882
0.180882
0.182882
0.184882
0.186882
0.188882
0.190882
0.192882
0.194882
0.196882
0.198882
0.200882
0.202882
0.204882
0.206882
0.208882
0.210882
0.212882
0.214882
0.216882
0.218882
0.220882
0.222882
0.224882
0.226882
0.228882
0.230882
0.232882
0.234882
0.236882
0.238882
0.240881
0.242881
0.24488
0.24688
0.248879
0.250878
0.252876
0.254875
0.256875
0.258877
0.260883
0.262894
0.264966
0.267533
0.270484
0.273364
0.276066
0.278615
0.28105
0.283368
0.285588
0.287707
0.289739
0.291677
0.293503
0.295235
0.296883
0.298405
0.29981
0.301055
0.100977
0.102936
0.104903
0.106877
0.108858
0.110844
0.112833
0.114825
0.116819
0.118815
0.120812
0.12281
0.124808
0.126807
0.128806
0.130806
0.132805
0.134805
0.136805
0.138804
0.140804
0.142804
0.144804
0.146804
0.148804
0.150804
0.152804
0.154804
0.156804
0.158804
0.160804
0.162804
0.164804
0.166804
0.168804
0.170804
0.172804
0.174804
0.176804
0.178804
0.180804
0.182804
0.184804
0.186804
0.188804
0.190804
0.192804
0.194804
0.196804
0.198804
0.200804
0.202804
0.204804
0.206804
0.208804
0.210804
0.212804
0.214804
0.216804
0.218804
0.220804
0.222804
0.224804
0.226804
0.228804
0.230803
0.232803
0.234803
0.236803
0.238803
0.240802
0.242801
0.2448
0.246799
0.248798
0.250795
0.252792
0.254789
0.256784
0.258781
0.26078
0.262794
0.264908
0.267573
0.270557
0.273416
0.276081
0.278605
0.281018
0.283334
0.285561
0.28769
0.289716
0.291648
0.293482
0.295217
0.296862
0.298384
0.299781
0.301045
0.100962
0.1029
0.104854
0.106819
0.108794
0.110776
0.112762
0.114752
0.116745
0.11874
0.120736
0.122733
0.124731
0.12673
0.128728
0.130728
0.132727
0.134727
0.136726
0.138726
0.140726
0.142726
0.144726
0.146726
0.148726
0.150725
0.152725
0.154725
0.156725
0.158725
0.160725
0.162725
0.164725
0.166725
0.168725
0.170725
0.172725
0.174725
0.176725
0.178725
0.180725
0.182725
0.184725
0.186725
0.188725
0.190725
0.192725
0.194725
0.196725
0.198725
0.200725
0.202725
0.204725
0.206725
0.208725
0.210725
0.212725
0.214725
0.216725
0.218725
0.220725
0.222725
0.224725
0.226725
0.228725
0.230725
0.232725
0.234724
0.236724
0.238724
0.240723
0.242722
0.244721
0.246719
0.248717
0.250714
0.252709
0.254703
0.256694
0.258681
0.260665
0.26266
0.264875
0.267685
0.270635
0.273445
0.276088
0.278602
0.281002
0.283312
0.285537
0.287661
0.289688
0.291626
0.293473
0.295211
0.296835
0.298353
0.299759
0.301019
0.100933
0.102849
0.104792
0.106752
0.108723
0.110703
0.112688
0.114677
0.116669
0.118663
0.120659
0.122655
0.124653
0.126651
0.12865
0.130649
0.132649
0.134648
0.136648
0.138648
0.140647
0.142647
0.144647
0.146647
0.148647
0.150647
0.152647
0.154647
0.156647
0.158647
0.160647
0.162647
0.164647
0.166647
0.168647
0.170647
0.172647
0.174647
0.176647
0.178647
0.180647
0.182647
0.184647
0.186647
0.188647
0.190647
0.192647
0.194647
0.196647
0.198647
0.200647
0.202647
0.204647
0.206647
0.208647
0.210647
0.212647
0.214647
0.216647
0.218647
0.220647
0.222647
0.224647
0.226647
0.228647
0.230646
0.232646
0.234646
0.236646
0.238645
0.240644
0.242643
0.244642
0.24664
0.248637
0.250634
0.252628
0.254619
0.256606
0.258584
0.260544
0.262515
0.264905
0.267797
0.270684
0.273462
0.276072
0.278585
0.280997
0.283303
0.285519
0.287634
0.289667
0.291613
0.293448
0.295197
0.296827
0.298343
0.29974
0.300985
0.101067
0.103151
0.105208
0.107248
0.109277
0.111297
0.113312
0.115323
0.117331
0.119337
0.121341
0.123345
0.125347
0.127349
0.12935
0.131351
0.133351
0.135352
0.137352
0.139352
0.141353
0.143353
0.145353
0.147353
0.149353
0.151353
0.153353
0.155353
0.157353
0.159353
0.161353
0.163353
0.165353
0.167353
0.169353
0.171353
0.173353
0.175353
0.177353
0.179353
0.181353
0.183353
0.185353
0.187353
0.189353
0.191353
0.193353
0.195353
0.197353
0.199353
0.201353
0.203353
0.205353
0.207353
0.209353
0.211353
0.213353
0.215353
0.217353
0.219353
0.221353
0.223353
0.225353
0.227354
0.229354
0.231354
0.233354
0.235354
0.237355
0.239355
0.241356
0.243357
0.245358
0.247359
0.249362
0.251365
0.253369
0.255374
0.257381
0.259391
0.261407
0.263435
0.265498
0.267677
0.27024
0.273187
0.276026
0.278667
0.281145
0.283498
0.285733
0.287863
0.289886
0.29181
0.293643
0.295368
0.296998
0.298502
0.299893
0.301125
0.101038
0.1031
0.105147
0.107181
0.109206
0.111224
0.113238
0.115248
0.117255
0.11926
0.121264
0.123267
0.125269
0.127271
0.129272
0.131272
0.133273
0.135274
0.137274
0.139274
0.141274
0.143274
0.145274
0.147275
0.149275
0.151275
0.153275
0.155275
0.157275
0.159275
0.161275
0.163275
0.165275
0.167275
0.169275
0.171275
0.173275
0.175275
0.177275
0.179275
0.181275
0.183275
0.185275
0.187275
0.189275
0.191275
0.193275
0.195275
0.197275
0.199275
0.201275
0.203275
0.205275
0.207275
0.209275
0.211275
0.213275
0.215275
0.217275
0.219275
0.221275
0.223275
0.225275
0.227275
0.229275
0.231275
0.233275
0.235276
0.237276
0.239276
0.241277
0.243278
0.245279
0.24728
0.249282
0.251285
0.253289
0.255293
0.257299
0.259307
0.261316
0.263322
0.26533
0.26763
0.270386
0.27327
0.276052
0.278668
0.281127
0.283473
0.285706
0.287833
0.289867
0.291802
0.293628
0.295347
0.296971
0.298476
0.299881
0.301107
0.101023
0.103064
0.105097
0.107123
0.109142
0.111157
0.113167
0.115175
0.117181
0.119185
0.121188
0.12319
0.125192
0.127193
0.129194
0.131194
0.133195
0.135195
0.137196
0.139196
0.141196
0.143196
0.145196
0.147196
0.149196
0.151196
0.153196
0.155196
0.157196
0.159196
0.161196
0.163196
0.165196
0.167196
0.169196
0.171196
0.173196
0.175196
0.177196
0.179196
0.181196
0.183196
0.185196
0.187196
0.189196
0.191196
0.193196
0.195196
0.197196
0.199196
0.201196
0.203196
0.205196
0.207196
0.209196
0.211196
0.213196
0.215196
0.217196
0.219196
0.221196
0.223196
0.225196
0.227196
0.229197
0.231197
0.233197
0.235197
0.237197
0.239198
0.241198
0.243199
0.2452
0.247201
0.249203
0.251205
0.253208
0.255212
0.257216
0.259222
0.261228
0.263238
0.265287
0.267554
0.270336
0.273259
0.276031
0.278656
0.281123
0.283458
0.285686
0.28782
0.289853
0.291786
0.293617
0.295338
0.296946
0.298457
0.299862
0.301095
0.101013
0.103036
0.105056
0.107071
0.109083
0.111092
0.113099
0.115104
0.117108
0.11911
0.121112
0.123114
0.125115
0.127116
0.129116
0.131117
0.133117
0.135117
0.137117
0.139117
0.141118
0.143118
0.145118
0.147118
0.149118
0.151118
0.153118
0.155118
0.157118
0.159118
0.161118
0.163118
0.165118
0.167118
0.169118
0.171118
0.173118
0.175118
0.177118
0.179118
0.181118
0.183118
0.185118
0.187118
0.189118
0.191118
0.193118
0.195118
0.197118
0.199118
0.201118
0.203118
0.205118
0.207118
0.209118
0.211118
0.213118
0.215118
0.217118
0.219118
0.221118
0.223118
0.225118
0.227118
0.229118
0.231118
0.233118
0.235118
0.237118
0.239119
0.241119
0.243119
0.24512
0.247121
0.249122
0.251124
0.253126
0.255129
0.257133
0.259136
0.261135
0.263117
0.265153
0.267644
0.270464
0.273318
0.276041
0.278638
0.281098
0.283431
0.285661
0.287792
0.289829
0.291766
0.293591
0.29531
0.296927
0.298446
0.299836
0.301084
0.101004
0.103012
0.105018
0.107023
0.109027
0.111031
0.113033
0.115035
0.117036
0.119037
0.121037
0.123038
0.125038
0.127039
0.129039
0.131039
0.133039
0.135039
0.137039
0.139039
0.141039
0.143039
0.145039
0.147039
0.149039
0.151039
0.153039
0.155039
0.157039
0.159039
0.161039
0.163039
0.165039
0.167039
0.169039
0.171039
0.173039
0.175039
0.177039
0.179039
0.181039
0.183039
0.185039
0.187039
0.189039
0.191039
0.193039
0.195039
0.197039
0.199039
0.201039
0.203039
0.205039
0.207039
0.209039
0.211039
0.213039
0.215039
0.217039
0.219039
0.221039
0.223039
0.225039
0.227039
0.229039
0.231039
0.233039
0.235039
0.23704
0.23904
0.24104
0.24304
0.24504
0.247041
0.249041
0.251042
0.253044
0.255046
0.257049
0.259054
0.261063
0.263082
0.265145
0.267475
0.270367
0.273298
0.276052
0.27865
0.281094
0.283421
0.285645
0.287774
0.289808
0.291737
0.293559
0.295279
0.296909
0.298439
0.299831
0.301081
0.100996
0.102988
0.104982
0.106977
0.108973
0.110969
0.112967
0.114965
0.116964
0.118963
0.120963
0.122962
0.124962
0.126962
0.128961
0.130961
0.132961
0.134961
0.136961
0.138961
0.140961
0.142961
0.144961
0.146961
0.148961
0.150961
0.152961
0.154961
0.156961
0.158961
0.160961
0.162961
0.164961
0.166961
0.168961
0.170961
0.172961
0.174961
0.176961
0.178961
0.180961
0.182961
0.184961
0.186961
0.188961
0.190961
0.192961
0.194961
0.196961
0.198961
0.200961
0.202961
0.204961
0.206961
0.208961
0.210961
0.212961
0.214961
0.216961
0.218961
0.220961
0.222961
0.224961
0.226961
0.228961
0.230961
0.232961
0.234961
0.236961
0.238961
0.24096
0.24296
0.24496
0.24696
0.24896
0.25096
0.25296
0.254961
0.256963
0.258969
0.26098
0.263008
0.265082
0.267449
0.270352
0.273288
0.276043
0.278638
0.281083
0.283403
0.285615
0.287737
0.289773
0.291702
0.293535
0.295255
0.29689
0.298427
0.29983
0.301084
0.100987
0.102964
0.104944
0.106929
0.108917
0.110908
0.112901
0.114896
0.116892
0.11889
0.120888
0.122886
0.124885
0.126884
0.128884
0.130883
0.132883
0.134883
0.136883
0.138883
0.140883
0.142883
0.144882
0.146882
0.148882
0.150882
0.152882
0.154882
0.156882
0.158882
0.160882
0.162882
0.164882
0.166882
0.168882
0.170882
0.172882
0.174882
0.176882
0.178882
0.180882
0.182882
0.184882
0.186882
0.188882
0.190882
0.192882
0.194882
0.196882
0.198882
0.200882
0.202882
0.204882
0.206882
0.208882
0.210882
0.212882
0.214882
0.216882
0.218882
0.220882
0.222882
0.224882
0.226882
0.228882
0.230882
0.232882
0.234882
0.236882
0.238882
0.240881
0.242881
0.24488
0.24688
0.248879
0.250878
0.252876
0.254875
0.256875
0.258877
0.260883
0.262894
0.264966
0.267533
0.270484
0.273364
0.276066
0.278615
0.28105
0.283368
0.285588
0.287707
0.289739
0.291677
0.293503
0.295235
0.296883
0.298405
0.29981
0.301055
0.100977
0.102936
0.104903
0.106877
0.108858
0.110844
0.112833
0.114825
0.116819
0.118815
0.120812
0.12281
0.124808
0.126807
0.128806
0.130806
0.132805
0.134805
0.136805
0.138804
0.140804
0.142804
0.144804
0.146804
0.148804
0.150804
0.152804
0.154804
0.156804
0.158804
0.160804
0.162804
0.164804
0.166804
0.168804
0.170804
0.172804
0.174804
0.176804
0.178804
0.180804
0.182804
0.184804
0.186804
0.188804
0.190804
0.192804
0.194804
0.196804
0.198804
0.200804
0.202804
0.204804
0.206804
0.208804
0.210804
0.212804
0.214804
0.216804
0.218804
0.220804
0.222804
0.224804
0.226804
0.228804
0.230803
0.232803
0.234803
0.236803
0.238803
0.240802
0.242801
0.2448
0.246799
0.248798
0.250795
0.252792
0.254789
0.256784
0.258781
0.26078
0.262794
0.264908
0.267573
0.270557
0.273416
0.276081
0.278605
0.281018
0.283334
0.285561
0.28769
0.289716
0.291648
0.293482
0.295217
0.296862
0.298384
0.299781
0.301045
0.100962
0.1029
0.104854
0.106819
0.108794
0.110776
0.112762
0.114752
0.116745
0.11874
0.120736
0.122733
0.124731
0.12673
0.128728
0.130728
0.132727
0.134727
0.136726
0.138726
0.140726
0.142726
0.144726
0.146726
0.148726
0.150725
0.152725
0.154725
0.156725
0.158725
0.160725
0.162725
0.164725
0.166725
0.168725
0.170725
0.172725
0.174725
0.176725
0.178725
0.180725
0.182725
0.184725
0.186725
0.188725
0.190725
0.192725
0.194725
0.196725
0.198725
0.200725
0.202725
0.204725
0.206725
0.208725
0.210725
0.212725
0.214725
0.216725
0.218725
0.220725
0.222725
0.224725
0.226725
0.228725
0.230725
0.232725
0.234724
0.236724
0.238724
0.240723
0.242722
0.244721
0.246719
0.248717
0.250714
0.252709
0.254703
0.256694
0.258681
0.260665
0.26266
0.264875
0.267685
0.270635
0.273445
0.276088
0.278602
0.281002
0.283312
0.285537
0.287661
0.289688
0.291626
0.293473
0.295211
0.296835
0.298353
0.299759
0.301019
0.100933
0.102849
0.104792
0.106752
0.108723
0.110703
0.112688
0.114677
0.116669
0.118663
0.120659
0.122655
0.124653
0.126651
0.12865
0.130649
0.132649
0.134648
0.136648
0.138648
0.140647
0.142647
0.144647
0.146647
0.148647
0.150647
0.152647
0.154647
0.156647
0.158647
0.160647
0.162647
0.164647
0.166647
0.168647
0.170647
0.172647
0.174647
0.176647
0.178647
0.180647
0.182647
0.184647
0.186647
0.188647
0.190647
0.192647
0.194647
0.196647
0.198647
0.200647
0.202647
0.204647
0.206647
0.208647
0.210647
0.212647
0.214647
0.216647
0.218647
0.220647
0.222647
0.224647
0.226647
0.228647
0.230646
0.232646
0.234646
0.236646
0.238645
0.240644
0.242643
0.244642
0.24664
0.248637
0.250634
0.252628
0.254619
0.256606
0.258584
0.260544
0.262515
0.264905
0.267797
0.270684
0.273462
0.276072
0.278585
0.280997
0.283303
0.285519
0.287634
0.289667
0.291613
0.293448
0.295197
0.296827
0.298343
0.29974
0.300985
0.101067
0.103151
0.105208
0.107248
0.109277
0.111297
0.113312
0.115323
0.117331
0.119337
0.121341
0.123345
0.125347
0.127349
0.12935
0.131351
0.133351
0.135352
0.137352
0.139352
0.141353
0.143353
0.145353
0.147353
0.149353
0.151353
0.153353
0.155353
0.157353
0.159353
0.161353
0.163353
0.165353
0.167353
0.169353
0.171353
0.173353
0.175353
0.177353
0.179353
0.181353
0.183353
0.185353
0.187353
0.189353
0.191353
0.193353
0.195353
0.197353
0.199353
0.201353
0.203353
0.205353
0.207353
0.209353
0.211353
0.213353
0.215353
0.217353
0.219353
0.221353
0.223353
0.225353
0.227354
0.229354
0.231354
0.233354
0.235354
0.237355
0.239355
0.241356
0.243357
0.245358
0.247359
0.249362
0.251365
0.253369
0.255374
0.257381
0.259391
0.261407
0.263435
0.265498
0.267677
0.27024
0.273187
0.276026
0.278667
0.281145
0.283498
0.285733
0.287863
0.289886
0.29181
0.293643
0.295368
0.296998
0.298502
0.299893
0.301125
0.100933
0.102849
0.104792
0.106752
0.108723
0.110703
0.112688
0.114677
0.116669
0.118663
0.120659
0.122655
0.124653
0.126651
0.12865
0.130649
0.132649
0.134648
0.136648
0.138648
0.140647
0.142647
0.144647
0.146647
0.148647
0.150647
0.152647
0.154647
0.156647
0.158647
0.160647
0.162647
0.164647
0.166647
0.168647
0.170647
0.172647
0.174647
0.176647
0.178647
0.180647
0.182647
0.184647
0.186647
0.188647
0.190647
0.192647
0.194647
0.196647
0.198647
0.200647
0.202647
0.204647
0.206647
0.208647
0.210647
0.212647
0.214647
0.216647
0.218647
0.220647
0.222647
0.224647
0.226647
0.228647
0.230646
0.232646
0.234646
0.236646
0.238645
0.240644
0.242643
0.244642
0.24664
0.248637
0.250634
0.252628
0.254619
0.256606
0.258584
0.260544
0.262515
0.264905
0.267797
0.270684
0.273462
0.276072
0.278585
0.280997
0.283303
0.285519
0.287634