/*--------------------------------*- C++ -*----------------------------------*\
| =========                 |                                                 |
| \\      /  F ield         | foam-extend: Open Source CFD                    |
|  \\    /   O peration     | Version:     5.0                                |
|   \\  /    A nd           | Web:         http://www.foam-extend.org         |
|    \\/     M anipulation  |                                                 |
\*---------------------------------------------------------------------------*/
FoamFile
{
    version     2.0;
    format      ascii;
    class       surfaceScalarField;
    location    "2000";
    object      phi;
}
// * * * * * * * * * * * * * * * * * * * * * * * * * * * * * * * * * * * * * //

dimensions      [0 3 -1 0 0 0 0];

internalField   nonuniform List<scalar> 
1890
(
-1.04211e-05
-2.47692e-07
-1.02847e-05
-1.36398e-07
-1.01998e-05
-8.48613e-08
-1.0143e-05
-5.67892e-08
-1.01034e-05
-3.95807e-08
-1.00752e-05
-2.82063e-08
-1.00549e-05
-2.03458e-08
-1.00401e-05
-1.4774e-08
-1.00293e-05
-1.07677e-08
-1.00215e-05
-7.86405e-09
-1.00157e-05
-5.75003e-09
-1.00115e-05
-4.20704e-09
-1.00084e-05
-3.07923e-09
-1.00062e-05
-2.25424e-09
-1.00045e-05
-1.65048e-09
-1.00033e-05
-1.20851e-09
-1.00024e-05
-8.84928e-10
-1.00018e-05
-6.48008e-10
-1.00013e-05
-4.74529e-10
-1.0001e-05
-3.47501e-10
-1.00007e-05
-2.54485e-10
-1.00005e-05
-1.86374e-10
-1.00004e-05
-1.36499e-10
-1.00003e-05
-9.99772e-11
-1.00002e-05
-7.32342e-11
-1.00002e-05
-5.36515e-11
-1.00001e-05
-3.9312e-11
-1.00001e-05
-2.88117e-11
-1.00001e-05
-2.11226e-11
-1e-05
-1.5492e-11
-1e-05
-1.13684e-11
-1e-05
-8.34819e-12
-1e-05
-6.13555e-12
-1e-05
-4.51383e-12
-1e-05
-3.32419e-12
-1e-05
-2.45016e-12
-1e-05
-1.80612e-12
-1e-05
-1.32902e-12
-1e-05
-9.72139e-13
-1e-05
-7.00569e-13
-1e-05
-4.87758e-13
-1e-05
-3.12936e-13
-1e-05
-1.59079e-13
-1e-05
-1.12473e-14
-1e-05
1.44873e-13
-1e-05
3.24366e-13
-1e-05
5.44571e-13
-1e-05
8.26762e-13
-1e-05
1.19825e-12
-1e-05
1.69504e-12
-1e-05
2.36539e-12
-1e-05
3.2745e-12
-1e-05
4.51095e-12
-1e-05
6.19527e-12
-1e-05
8.49178e-12
-1e-05
1.16244e-11
-1.00001e-05
1.58985e-11
-1.00001e-05
2.17301e-11
-1.00001e-05
2.96857e-11
-1.00002e-05
4.05362e-11
-1.00002e-05
5.53292e-11
-1.00003e-05
7.54864e-11
-1.00004e-05
1.02933e-10
-1.00005e-05
1.40269e-10
-1.00007e-05
1.90993e-10
-1.0001e-05
2.59788e-10
-1.00013e-05
3.52882e-10
-1.00018e-05
4.7849e-10
-1.00025e-05
6.47335e-10
-1.00033e-05
8.73234e-10
-1.00045e-05
1.17376e-09
-1.00061e-05
1.57103e-09
-1.00082e-05
2.09303e-09
-1.00109e-05
2.77679e-09
-1.00146e-05
3.67764e-09
-1.00195e-05
4.89646e-09
-1.00262e-05
6.65813e-09
-1.00357e-05
9.53292e-09
-1.00508e-05
1.50735e-08
-1.00786e-05
2.77921e-08
-1.01408e-05
6.22505e-08
-1.03135e-05
1.72696e-07
-1.07657e-05
4.52186e-07
-1.06944e-05
-7.13507e-08
-1.00068e-05
-6.87605e-07
-9.58119e-06
-4.25558e-07
-9.37267e-06
-2.08528e-07
-9.27631e-06
-9.63578e-08
-9.265e-06
-1.13116e-08
-9.29181e-06
2.68152e-08
-9.34108e-06
4.92719e-08
-9.41366e-06
7.25707e-08
-9.44453e-06
3.08758e-08
-9.4327e-06
-1.1836e-08
-9.47033e-06
3.76364e-08
-9.55069e-06
8.03598e-08
-9.67619e-06
1.25493e-07
-9.81404e-06
1.37854e-07
-9.87327e-06
5.92247e-08
1.26735e-07
-1.03098e-05
-3.17264e-07
-1.02331e-05
-2.13038e-07
-1.01717e-05
-1.46258e-07
-1.01258e-05
-1.02715e-07
-1.0092e-05
-7.33273e-08
-1.00674e-05
-5.28986e-08
-1.00493e-05
-3.84027e-08
-1.00361e-05
-2.79823e-08
-1.00264e-05
-2.04328e-08
-1.00194e-05
-1.49384e-08
-1.00142e-05
-1.0929e-08
-1.00104e-05
-7.99881e-09
-1.00076e-05
-5.85557e-09
-1.00056e-05
-4.28715e-09
-1.00041e-05
-3.13906e-09
-1.0003e-05
-2.29852e-09
-1.00022e-05
-1.68309e-09
-1.00016e-05
-1.23246e-09
-1.00012e-05
-9.02486e-10
-1.00009e-05
-6.60864e-10
-1.00006e-05
-4.83934e-10
-1.00005e-05
-3.54374e-10
-1.00003e-05
-2.59502e-10
-1.00003e-05
-1.9003e-10
-1.00002e-05
-1.39158e-10
-1.00001e-05
-1.01906e-10
-1.00001e-05
-7.46267e-11
-1.00001e-05
-5.46506e-11
-1.00001e-05
-4.00221e-11
-1e-05
-2.93092e-11
-1e-05
-2.14633e-11
-1e-05
-1.57163e-11
-1e-05
-1.15057e-11
-1e-05
-8.41938e-12
-1e-05
-6.15524e-12
-1e-05
-4.49169e-12
-1e-05
-3.26593e-12
-1e-05
-2.35802e-12
-1e-05
-1.67914e-12
-1e-05
-1.16291e-12
-1e-05
-7.58863e-13
-1e-05
-4.27524e-13
-1e-05
-1.36553e-13
-1e-05
1.42431e-13
-1e-05
4.36622e-13
-1e-05
7.74692e-13
-1e-05
1.1896e-12
-1e-05
1.7218e-12
-1e-05
2.42324e-12
-1e-05
3.36242e-12
-1e-05
4.63111e-12
-1e-05
6.35333e-12
-1e-05
8.6975e-12
-1e-05
1.18929e-11
-1e-05
1.62519e-11
-1e-05
2.22007e-11
-1.00001e-05
3.032e-11
-1.00001e-05
4.14019e-11
-1.00001e-05
5.65254e-11
-1.00001e-05
7.71597e-11
-1.00002e-05
1.05303e-10
-1.00003e-05
1.4367e-10
-1.00003e-05
1.95941e-10
-1.00005e-05
2.67093e-10
-1.00006e-05
3.63837e-10
-1.00009e-05
4.95179e-10
-1.00012e-05
6.73136e-10
-1.00016e-05
9.13619e-10
-1.00022e-05
1.23748e-09
-1.0003e-05
1.6717e-09
-1.00041e-05
2.25064e-09
-1.00056e-05
3.0172e-09
-1.00075e-05
4.02419e-09
-1.001e-05
5.3364e-09
-1.00134e-05
7.03721e-09
-1.00178e-05
9.25002e-09
-1.00233e-05
1.22032e-08
-1.00302e-05
1.64002e-08
-1.00381e-05
2.2969e-08
-1.00441e-05
3.38441e-08
-1.00297e-05
4.78473e-08
-9.88302e-06
2.60043e-08
-9.24808e-06
-1.82756e-07
-9.25273e-06
-6.66991e-08
-9.84591e-06
-9.44196e-08
-1.01251e-05
-1.46366e-07
-1.02763e-05
-5.73514e-08
-1.03058e-05
-6.68431e-08
-1.02397e-05
-7.7415e-08
-1.01948e-05
-1.81103e-08
-1.01659e-05
2.03845e-08
-1.00922e-05
-1.1545e-09
-1.00768e-05
1.54837e-08
-1.01235e-05
3.48764e-08
-1.01023e-05
1.64323e-08
-1.00371e-05
1.51583e-08
-1.00332e-05
1.21599e-07
-9.99438e-06
9.90474e-08
-1.00446e-05
1.09437e-07
8.21472e-08
-1.02055e-05
-3.40791e-07
-1.01663e-05
-2.52231e-07
-1.01282e-05
-1.84419e-07
-1.00964e-05
-1.34484e-07
-1.00716e-05
-9.81152e-08
-1.00529e-05
-7.16582e-08
-1.00389e-05
-5.23843e-08
-1.00285e-05
-3.83196e-08
-1.00209e-05
-2.8043e-08
-1.00153e-05
-2.05276e-08
-1.00112e-05
-1.50286e-08
-1.00082e-05
-1.10037e-08
-1.0006e-05
-8.05712e-09
-1.00044e-05
-5.89975e-09
-1.00032e-05
-4.32011e-09
-1.00024e-05
-3.16345e-09
-1.00017e-05
-2.31648e-09
-1.00013e-05
-1.69628e-09
-1.00009e-05
-1.24213e-09
-1.00007e-05
-9.09571e-10
-1.00005e-05
-6.66049e-10
-1.00004e-05
-4.87726e-10
-1.00003e-05
-3.57146e-10
-1.00002e-05
-2.61525e-10
-1.00002e-05
-1.91505e-10
-1.00001e-05
-1.40231e-10
-1.00001e-05
-1.02684e-10
-1.00001e-05
-7.51882e-11
-1e-05
-5.50532e-11
-1e-05
-4.03076e-11
-1e-05
-2.95081e-11
-1e-05
-2.15976e-11
-1e-05
-1.58019e-11
-1e-05
-1.15536e-11
-1e-05
-8.43706e-12
-1e-05
-6.1472e-12
-1e-05
-4.45996e-12
-1e-05
-3.21028e-12
-1e-05
-2.27591e-12
-1e-05
-1.56549e-12
-1e-05
-1.00956e-12
-1e-05
-5.53808e-13
-1e-05
-1.53725e-13
-1e-05
2.29746e-13
-1e-05
6.34028e-13
-1e-05
1.09858e-12
-1e-05
1.66876e-12
-1e-05
2.40027e-12
-1e-05
3.36459e-12
-1e-05
4.65602e-12
-1e-05
6.4009e-12
-1e-05
8.76995e-12
-1e-05
1.1995e-11
-1e-05
1.63919e-11
-1e-05
2.23907e-11
-1e-05
3.05785e-11
-1e-05
4.17557e-11
-1.00001e-05
5.70142e-11
-1.00001e-05
7.78427e-11
-1.00001e-05
1.0627e-10
-1.00001e-05
1.45057e-10
-1.00002e-05
1.97962e-10
-1.00003e-05
2.70089e-10
-1.00004e-05
3.68358e-10
-1.00005e-05
5.02127e-10
-1.00007e-05
6.8401e-10
-1.0001e-05
9.3093e-10
-1.00013e-05
1.26544e-09
-1.00018e-05
1.71735e-09
-1.00024e-05
2.32556e-09
-1.00033e-05
3.13997e-09
-1.00045e-05
4.22307e-09
-1.00062e-05
5.65023e-09
-1.00083e-05
7.50754e-09
-1.00112e-05
9.88488e-09
-1.00148e-05
1.28633e-08
-1.00191e-05
1.65042e-08
-1.00236e-05
2.08958e-08
-1.00272e-05
2.65585e-08
-1.00301e-05
3.6769e-08
-1.00522e-05
6.9954e-08
-1.02397e-05
2.13519e-07
-1.073e-05
3.07533e-07
-1.02375e-05
-5.59234e-07
-9.75124e-06
-5.80667e-07
-9.56959e-06
-3.28023e-07
-9.49545e-06
-1.31484e-07
-9.54021e-06
-2.20833e-08
-9.63462e-06
1.69925e-08
-9.69629e-06
4.3561e-08
-9.71676e-06
4.08554e-08
-9.78601e-06
6.8095e-08
-9.83449e-06
6.39576e-08
-9.85128e-06
5.16647e-08
-9.93334e-06
9.84999e-08
-1.00424e-05
1.24191e-07
-1.00113e-05
9.0566e-08
-9.96002e-06
4.77202e-08
-1.00157e-05
1.65117e-07
6.6449e-08
-1.0117e-05
-3.49662e-07
-1.00985e-05
-2.70675e-07
-1.00782e-05
-2.04701e-07
-1.006e-05
-1.52689e-07
-1.00452e-05
-1.12991e-07
-1.00336e-05
-8.32346e-08
-1.00248e-05
-6.11566e-08
-1.00183e-05
-4.4869e-08
-1.00134e-05
-3.28919e-08
-1.00098e-05
-2.41005e-08
-1.00072e-05
-1.76542e-08
-1.00053e-05
-1.29302e-08
-1.00039e-05
-9.46946e-09
-1.00028e-05
-6.93463e-09
-1.00021e-05
-5.0782e-09
-1.00015e-05
-3.71868e-09
-1.00011e-05
-2.7231e-09
-1.00008e-05
-1.99405e-09
-1.00006e-05
-1.46018e-09
-1.00004e-05
-1.06924e-09
-1.00003e-05
-7.8297e-10
-1.00002e-05
-5.73339e-10
-1.00002e-05
-4.19832e-10
-1.00001e-05
-3.07424e-10
-1.00001e-05
-2.25109e-10
-1.00001e-05
-1.64832e-10
-1.00001e-05
-1.20693e-10
-1e-05
-8.83697e-11
-1e-05
-6.46991e-11
-1e-05
-4.73643e-11
-1e-05
-3.46684e-11
-1e-05
-2.53688e-11
-1e-05
-1.85553e-11
-1e-05
-1.35609e-11
-1e-05
-9.897e-12
-1e-05
-7.20497e-12
-1e-05
-5.22141e-12
-1e-05
-3.75227e-12
-1e-05
-2.65385e-12
-1e-05
-1.81875e-12
-1e-05
-1.16531e-12
-1e-05
-6.29705e-13
-1e-05
-1.59602e-13
-1e-05
2.90904e-13
-1e-05
7.65808e-13
-1e-05
1.31149e-12
-1e-05
1.98128e-12
-1e-05
2.84064e-12
-1e-05
3.97364e-12
-1e-05
5.49113e-12
-1e-05
7.54166e-12
-1e-05
1.0326e-11
-1e-05
1.41169e-11
-1e-05
1.92856e-11
-1e-05
2.63384e-11
-1e-05
3.59661e-11
-1e-05
4.91113e-11
-1e-05
6.70603e-11
-1e-05
9.15684e-11
-1.00001e-05
1.2503e-10
-1.00001e-05
1.70709e-10
-1.00001e-05
2.33054e-10
-1.00002e-05
3.18123e-10
-1.00002e-05
4.34156e-10
-1.00003e-05
5.92343e-10
-1.00005e-05
8.07854e-10
-1.00006e-05
1.10119e-09
-1.00009e-05
1.49993e-09
-1.00012e-05
2.04099e-09
-1.00016e-05
2.77328e-09
-1.00023e-05
3.76072e-09
-1.00031e-05
5.08495e-09
-1.00043e-05
6.84624e-09
-1.0006e-05
9.15878e-09
-1.00082e-05
1.21316e-08
-1.00112e-05
1.58143e-08
-1.00147e-05
2.00547e-08
-1.00179e-05
2.41202e-08
-1.0017e-05
2.55996e-08
-9.99692e-06
1.67163e-08
-9.89683e-06
-3.01372e-08
-9.46861e-06
-2.14703e-07
-8.80666e-06
-3.54413e-07
-9.61027e-06
2.44367e-07
-1.02909e-05
9.99237e-08
-1.05295e-05
-8.93427e-08
-1.04987e-05
-1.62321e-07
-1.03774e-05
-1.43411e-07
-1.02959e-05
-6.44545e-08
-1.02222e-05
-3.01383e-08
-1.01894e-05
8.0712e-09
-1.01509e-05
2.9585e-08
-1.01386e-05
5.16298e-08
-1.01922e-05
1.05219e-07
-1.02316e-05
1.3791e-07
-1.02548e-05
1.47416e-07
-1.02445e-05
8.03023e-08
-1.02142e-05
1.73626e-08
-1.00621e-05
1.30186e-08
4.3716e-09
-1.0038e-05
-3.52046e-07
-1.00326e-05
-2.76104e-07
-1.00262e-05
-2.11022e-07
-1.00203e-05
-1.58581e-07
-1.00154e-05
-1.17924e-07
-1.00115e-05
-8.71329e-08
-1.00085e-05
-6.41385e-08
-1.00063e-05
-4.71079e-08
-1.00046e-05
-3.4555e-08
-1.00034e-05
-2.53284e-08
-1.00025e-05
-1.85576e-08
-1.00018e-05
-1.35935e-08
-1.00013e-05
-9.95587e-09
-1.0001e-05
-7.29112e-09
-1.00007e-05
-5.33937e-09
-1.00005e-05
-3.90998e-09
-1.00004e-05
-2.8632e-09
-1.00003e-05
-2.09665e-09
-1.00002e-05
-1.53531e-09
-1.00002e-05
-1.12425e-09
-1.00001e-05
-8.23248e-10
-1.00001e-05
-6.02829e-10
-1.00001e-05
-4.41422e-10
-1.00001e-05
-3.23227e-10
-1e-05
-2.36677e-10
-1e-05
-1.73297e-10
-1e-05
-1.26886e-10
-1e-05
-9.28986e-11
-1e-05
-6.80095e-11
-1e-05
-4.97822e-11
-1e-05
-3.64326e-11
-1e-05
-2.66541e-11
-1e-05
-1.94896e-11
-1e-05
-1.4238e-11
-1e-05
-1.03854e-11
-1e-05
-7.55463e-12
-1e-05
-5.46887e-12
-1e-05
-3.92405e-12
-1e-05
-2.76907e-12
-1e-05
-1.891e-12
-1e-05
-1.204e-12
-1e-05
-6.40947e-13
-1e-05
-1.46826e-13
-1e-05
3.26628e-13
-1e-05
8.25667e-13
-1e-05
1.39907e-12
-1e-05
2.10288e-12
-1e-05
3.00598e-12
-1e-05
4.19673e-12
-1e-05
5.79174e-12
-1e-05
7.94723e-12
-1e-05
1.08744e-11
-1e-05
1.48601e-11
-1e-05
2.02951e-11
-1e-05
2.77123e-11
-1e-05
3.78389e-11
-1e-05
5.16678e-11
-1e-05
7.05549e-11
-1e-05
9.6352e-11
-1e-05
1.31587e-10
-1e-05
1.79714e-10
-1e-05
2.45448e-10
-1.00001e-05
3.35227e-10
-1.00001e-05
4.5784e-10
-1.00001e-05
6.25285e-10
-1.00002e-05
8.53932e-10
-1.00002e-05
1.1661e-09
-1.00003e-05
1.59218e-09
-1.00005e-05
2.17349e-09
-1.00006e-05
2.96595e-09
-1.00009e-05
4.04477e-09
-1.00014e-05
5.50989e-09
-1.0002e-05
7.49111e-09
-1.0003e-05
1.01498e-08
-1.00045e-05
1.36686e-08
-1.00069e-05
1.8208e-08
-1.00106e-05
2.37803e-08
-1.00165e-05
2.99312e-08
-1.00259e-05
3.50037e-08
-1.00438e-05
3.46359e-08
-1.00935e-05
1.95488e-08
-1.02857e-05
-2.24344e-08
-1.05652e-05
-7.49129e-08
-1.00879e-05
-2.33e-07
-9.79956e-06
-1.88383e-07
-9.75733e-06
-1.31574e-07
-9.81857e-06
-1.01079e-07
-9.89514e-06
-6.68406e-08
-9.90958e-06
-5.00141e-08
-9.93663e-06
-3.08766e-09
-9.99126e-06
6.26984e-08
-1.00671e-05
1.05415e-07
-1.01264e-05
1.10888e-07
-1.01519e-05
1.30784e-07
-1.0098e-05
8.40241e-08
-1.00496e-05
9.89839e-08
-1.00487e-05
7.93629e-08
-1.00824e-05
5.10746e-08
-1.0051e-05
-1.83296e-08
-4.6654e-08
-9.96204e-06
-3.49662e-07
-9.96747e-06
-2.70675e-07
-9.97379e-06
-2.04701e-07
-9.97968e-06
-1.52689e-07
-9.98462e-06
-1.12991e-07
-9.98851e-06
-8.32346e-08
-9.9915e-06
-6.11566e-08
-9.99373e-06
-4.4869e-08
-9.9954e-06
-3.28919e-08
-9.99663e-06
-2.41005e-08
-9.99753e-06
-1.76542e-08
-9.99819e-06
-1.29302e-08
-9.99868e-06
-9.46944e-09
-9.99903e-06
-6.93461e-09
-9.9993e-06
-5.07817e-09
-9.99949e-06
-3.71866e-09
-9.99963e-06
-2.72308e-09
-9.99973e-06
-1.99403e-09
-9.9998e-06
-1.46015e-09
-9.99986e-06
-1.06921e-09
-9.9999e-06
-7.82938e-10
-9.99993e-06
-5.73306e-10
-9.99995e-06
-4.19798e-10
-9.99997e-06
-3.07388e-10
-9.99998e-06
-2.25072e-10
-9.99998e-06
-1.64794e-10
-9.99999e-06
-1.20653e-10
-9.99999e-06
-8.83293e-11
-1e-05
-6.46579e-11
-1e-05
-4.73222e-11
-1e-05
-3.46255e-11
-1e-05
-2.53252e-11
-1e-05
-1.8511e-11
-1e-05
-1.35161e-11
-1e-05
-9.85171e-12
-1e-05
-7.1593e-12
-1e-05
-5.17546e-12
-1e-05
-3.70612e-12
-1e-05
-2.6076e-12
-1e-05
-1.77249e-12
-1e-05
-1.11916e-12
-1e-05
-5.83773e-13
-1e-05
-1.1401e-13
-1e-05
3.36026e-13
-1e-05
8.10321e-13
-1e-05
1.35525e-12
-1e-05
2.02415e-12
-1e-05
2.88249e-12
-1e-05
4.01434e-12
-1e-05
5.53062e-12
-1e-05
7.57995e-12
-1e-05
1.03633e-11
-1e-05
1.41536e-11
-1e-05
1.93228e-11
-9.99999e-06
2.63782e-11
-9.99999e-06
3.60125e-11
-9.99999e-06
4.91716e-11
-9.99999e-06
6.71484e-11
-9.99998e-06
9.17096e-11
-9.99997e-06
1.25271e-10
-9.99997e-06
1.71136e-10
-9.99995e-06
2.33827e-10
-9.99994e-06
3.19532e-10
-9.99992e-06
4.36736e-10
-9.99989e-06
5.97079e-10
-9.99985e-06
8.16551e-10
-9.9998e-06
1.11717e-09
-9.99974e-06
1.52929e-09
-9.99966e-06
2.09493e-09
-9.99957e-06
2.87236e-09
-9.99947e-06
3.94265e-09
-9.99937e-06
5.41887e-09
-9.99934e-06
7.45866e-09
-9.99947e-06
1.02808e-08
-9.99999e-06
1.4185e-08
-1.00013e-05
1.95685e-08
-1.00045e-05
2.69275e-08
-1.00114e-05
3.68208e-08
-1.00262e-05
4.98488e-08
-1.00589e-05
6.72757e-08
-1.01354e-05
9.61241e-08
-1.03325e-05
1.74649e-07
-1.06084e-05
2.00982e-07
-1.02491e-05
-5.92358e-07
-9.81413e-06
-6.23314e-07
-9.55169e-06
-3.94021e-07
-9.46501e-06
-1.87758e-07
-9.52616e-06
-5.68989e-09
-9.62329e-06
4.71225e-08
-9.69751e-06
7.11267e-08
-9.68891e-06
5.41027e-08
-9.66265e-06
7.91482e-08
-9.65933e-06
1.07567e-07
-9.60634e-06
7.77994e-08
-9.64793e-06
1.25616e-07
-9.62656e-06
7.76108e-08
-9.55441e-06
7.20673e-09
-9.61098e-06
1.07647e-07
-9.74265e-06
1.1334e-07
2.10698e-07
-9.88305e-06
-3.40791e-07
-9.9015e-06
-2.52231e-07
-9.92178e-06
-1.84419e-07
-9.93998e-06
-1.34484e-07
-9.95486e-06
-9.81151e-08
-9.96644e-06
-7.16581e-08
-9.97521e-06
-5.23843e-08
-9.98176e-06
-3.83196e-08
-9.98661e-06
-2.8043e-08
-9.99018e-06
-2.05276e-08
-9.9928e-06
-1.50286e-08
-9.99473e-06
-1.10037e-08
-9.99614e-06
-8.05708e-09
-9.99718e-06
-5.89971e-09
-9.99794e-06
-4.32007e-09
-9.99849e-06
-3.1634e-09
-9.9989e-06
-2.31642e-09
-9.9992e-06
-1.69622e-09
-9.99941e-06
-1.24207e-09
-9.99957e-06
-9.09509e-10
-9.99969e-06
-6.65985e-10
-9.99977e-06
-4.87659e-10
-9.99984e-06
-3.57076e-10
-9.99988e-06
-2.61453e-10
-9.99992e-06
-1.9143e-10
-9.99994e-06
-1.40154e-10
-9.99996e-06
-1.02605e-10
-9.99997e-06
-7.51072e-11
-9.99998e-06
-5.49703e-11
-9.99999e-06
-4.02229e-11
-9.99999e-06
-2.94218e-11
-1e-05
-2.15099e-11
-1e-05
-1.57129e-11
-1e-05
-1.14636e-11
-1e-05
-8.34607e-12
-1e-05
-6.05544e-12
-1e-05
-4.36763e-12
-1e-05
-3.11755e-12
-1e-05
-2.18298e-12
-1e-05
-1.47255e-12
-1e-05
-9.16827e-13
-1e-05
-4.61514e-13
-1e-05
-6.21139e-14
-1e-05
3.20409e-13
-1e-05
7.23467e-13
-1e-05
1.18651e-12
-1e-05
1.75489e-12
-1e-05
2.48431e-12
-1e-05
3.4463e-12
-1e-05
4.73522e-12
-1e-05
6.47755e-12
-9.99999e-06
8.8443e-12
-9.99999e-06
1.20678e-11
-9.99999e-06
1.64648e-11
-9.99998e-06
2.2467e-11
-9.99998e-06
3.06646e-11
-9.99997e-06
4.18636e-11
-9.99996e-06
5.71662e-11
-9.99995e-06
7.80799e-11
-9.99993e-06
1.06668e-10
-9.9999e-06
1.45756e-10
-9.99987e-06
1.99219e-10
-9.99982e-06
2.72375e-10
-9.99976e-06
3.72538e-10
-9.99967e-06
5.09794e-10
-9.99955e-06
6.98089e-10
-9.99939e-06
9.56793e-10
-9.99917e-06
1.31296e-09
-9.99888e-06
1.80467e-09
-9.9985e-06
2.48599e-09
-9.99799e-06
3.43471e-09
-9.99733e-06
4.76439e-09
-9.99652e-06
6.64397e-09
-9.99557e-06
9.33018e-09
-9.9946e-06
1.32222e-08
-9.99399e-06
1.89538e-08
-9.9946e-06
2.75402e-08
-9.99836e-06
4.05752e-08
-1.00088e-05
6.02951e-08
-1.003e-05
8.84943e-08
-1.00535e-05
1.19653e-07
-9.98792e-06
1.09016e-07
-9.68328e-06
-1.03656e-07
-9.84299e-06
-4.32645e-07
-1.00551e-05
-4.11235e-07
-1.01378e-05
-3.11256e-07
-1.01658e-05
-1.59785e-07
-1.01258e-05
-4.57294e-08
-1.01342e-05
5.55337e-08
-1.01394e-05
7.6368e-08
-1.01409e-05
5.55999e-08
-1.00834e-05
2.16436e-08
-1.00388e-05
6.29382e-08
-1.0066e-05
1.0499e-07
-1.00144e-05
7.39991e-08
-1.00025e-05
6.57606e-08
-1.00897e-05
9.43855e-08
-1.00885e-05
1.06489e-07
-1.01545e-05
1.79288e-07
5.62163e-08
-9.79449e-06
-3.17264e-07
-9.83369e-06
-2.13038e-07
-9.87185e-06
-1.46258e-07
-9.90362e-06
-1.02715e-07
-9.9284e-06
-7.33273e-08
-9.94716e-06
-5.28986e-08
-9.96114e-06
-3.84027e-08
-9.97148e-06
-2.79822e-08
-9.97909e-06
-2.04328e-08
-9.98468e-06
-1.49383e-08
-9.98878e-06
-1.09289e-08
-9.99178e-06
-7.99875e-09
-9.99399e-06
-5.85551e-09
-9.9956e-06
-4.28708e-09
-9.99678e-06
-3.13898e-09
-9.99764e-06
-2.29844e-09
-9.99828e-06
-1.683e-09
-9.99874e-06
-1.23237e-09
-9.99908e-06
-9.02394e-10
-9.99933e-06
-6.60768e-10
-9.99951e-06
-4.83834e-10
-9.99964e-06
-3.5427e-10
-9.99974e-06
-2.59394e-10
-9.99981e-06
-1.89918e-10
-9.99986e-06
-1.39042e-10
-9.9999e-06
-1.01786e-10
-9.99993e-06
-7.45036e-11
-9.99995e-06
-5.45244e-11
-9.99997e-06
-3.98929e-11
-9.99998e-06
-2.91773e-11
-9.99998e-06
-2.13289e-11
-9.99999e-06
-1.55797e-11
-9.99999e-06
-1.13672e-11
-1e-05
-8.27917e-12
-1e-05
-6.01361e-12
-1e-05
-4.34889e-12
-1e-05
-3.12224e-12
-1e-05
-2.21371e-12
-1e-05
-1.53452e-12
-1e-05
-1.01828e-12
-1e-05
-6.14552e-13
-1e-05
-2.83896e-13
-1e-05
6.00661e-15
-1e-05
2.8351e-13
-1e-05
5.75784e-13
-1e-05
9.11482e-13
-1e-05
1.32355e-12
-1e-05
1.85245e-12
-1e-05
2.55017e-12
-1e-05
3.48528e-12
-9.99999e-06
4.74972e-12
-9.99999e-06
6.46779e-12
-9.99999e-06
8.80845e-12
-9.99998e-06
1.20019e-11
-9.99998e-06
1.63622e-11
-9.99997e-06
2.23186e-11
-9.99996e-06
3.04574e-11
-9.99994e-06
4.15811e-11
-9.99992e-06
5.67874e-11
-9.99989e-06
7.75801e-11
-9.99985e-06
1.06021e-10
-9.9998e-06
1.44943e-10
-9.99972e-06
1.9824e-10
-9.99962e-06
2.71285e-10
-9.99948e-06
3.71515e-10
-9.99929e-06
5.09268e-10
-9.99903e-06
6.99014e-10
-9.99868e-06
9.61166e-10
-9.9982e-06
1.32486e-09
-9.99755e-06
1.83231e-09
-9.99666e-06
2.54588e-09
-9.99545e-06
3.56007e-09
-9.99383e-06
5.02267e-09
-9.99168e-06
7.1737e-09
-9.98887e-06
1.04202e-08
-9.9854e-06
1.54844e-08
-9.98157e-06
2.37049e-08
-9.97864e-06
3.76447e-08
-9.9806e-06
6.22617e-08
-9.99886e-06
1.06753e-07
-1.00643e-05
1.85125e-07
-1.0233e-05
2.77653e-07
-1.01453e-05
-1.91356e-07
-9.95283e-06
-6.25087e-07
-9.94221e-06
-4.21851e-07
-1.00304e-05
-2.23084e-07
-1.00641e-05
-1.26021e-07
-1.00362e-05
-7.36903e-08
-9.97236e-06
-8.29275e-09
-9.92064e-06
2.46494e-08
-9.91062e-06
4.55768e-08
-9.9653e-06
7.63196e-08
-9.98721e-06
8.48513e-08
-9.94659e-06
6.43716e-08
-9.88006e-06
7.46721e-09
-9.81247e-06
-1.82768e-09
-9.84869e-06
1.30599e-07
-9.91571e-06
1.73512e-07
-9.87208e-06
1.35656e-07
1.84138e-07
-9.69027e-06
-2.47692e-07
-9.76691e-06
-1.36398e-07
-9.8283e-06
-8.48613e-08
-9.87423e-06
-5.67892e-08
-9.90797e-06
-3.95807e-08
-9.93267e-06
-2.82062e-08
-9.95072e-06
-2.03457e-08
-9.96393e-06
-1.47739e-08
-9.9736e-06
-1.07677e-08
-9.98067e-06
-7.86396e-09
-9.98585e-06
-5.74993e-09
-9.98964e-06
-4.20694e-09
-9.99242e-06
-3.07912e-09
-9.99445e-06
-2.25412e-09
-9.99594e-06
-1.65035e-09
-9.99703e-06
-1.20837e-09
-9.99783e-06
-8.84784e-10
-9.99841e-06
-6.47856e-10
-9.99884e-06
-4.7437e-10
-9.99915e-06
-3.47335e-10
-9.99938e-06
-2.54311e-10
-9.99955e-06
-1.86193e-10
-9.99967e-06
-1.36311e-10
-9.99976e-06
-9.97829e-11
-9.99983e-06
-7.30335e-11
-9.99988e-06
-5.34448e-11
-9.99991e-06
-3.90995e-11
-9.99994e-06
-2.85938e-11
-9.99996e-06
-2.08998e-11
-9.99997e-06
-1.52646e-11
-9.99998e-06
-1.11369e-11
-9.99999e-06
-8.11296e-12
-9.99999e-06
-5.89705e-12
-9.99999e-06
-4.27249e-12
-1e-05
-3.08046e-12
-1e-05
-2.20448e-12
-1e-05
-1.55896e-12
-1e-05
-1.08084e-12
-1e-05
-7.23449e-13
-1e-05
-4.51898e-13
-1e-05
-2.3968e-13
-1e-05
-6.60681e-14
-1e-05
8.59106e-14
-1e-05
2.31147e-13
-1e-05
3.83909e-13
-1e-05
5.59244e-13
-1e-05
7.74461e-13
-1e-05
1.05083e-12
-1e-05
1.41569e-12
-9.99999e-06
1.90511e-12
-9.99999e-06
2.56747e-12
-9.99999e-06
3.46821e-12
-9.99998e-06
4.69624e-12
-9.99998e-06
6.37272e-12
-9.99997e-06
8.66299e-12
-9.99996e-06
1.17929e-11
-9.99995e-06
1.60711e-11
-9.99993e-06
2.19198e-11
-9.9999e-06
2.99171e-11
-9.99986e-06
4.08552e-11
-9.99981e-06
5.58213e-11
-9.99974e-06
7.63097e-11
-9.99965e-06
1.04379e-10
-9.99952e-06
1.42874e-10
-9.99934e-06
1.95743e-10
-9.9991e-06
2.68493e-10
-9.99877e-06
3.68869e-10
-9.99832e-06
5.07874e-10
-9.99769e-06
7.01357e-10
-9.99683e-06
9.72576e-10
-9.99564e-06
1.35651e-09
-9.99399e-06
1.90743e-09
-9.99168e-06
2.713e-09
-9.98843e-06
3.92178e-09
-9.98381e-06
5.80027e-09
-9.97718e-06
8.85887e-09
-9.96763e-06
1.41504e-08
-9.95402e-06
2.40374e-08
-9.93611e-06
4.43542e-08
-9.92048e-06
9.11173e-08
-9.94675e-06
2.11397e-07
-1.00107e-05
3.41656e-07
-9.79943e-06
-4.02673e-07
-9.88324e-06
-5.41278e-07
-1.00084e-05
-2.96658e-07
-1.00657e-05
-1.65807e-07
-1.01724e-05
-1.93558e-08
-1.02392e-05
-6.82905e-09
-1.01984e-05
-4.91446e-08
-1.01537e-05
-2.0021e-08
-1.01331e-05
2.49148e-08
-1.01369e-05
8.01815e-08
-1.011e-05
5.79261e-08
-1.00718e-05
2.62269e-08
-1.01612e-05
9.67819e-08
-1.02052e-05
4.22485e-08
-1.00953e-05
2.06771e-08
-9.96034e-06
3.8533e-08
-9.93272e-06
1.08038e-07
2.51418e-07
-9.57897e-06
-9.71537e-06
-9.80023e-06
-9.85702e-06
-9.8966e-06
-9.92481e-06
-9.94515e-06
-9.95993e-06
-9.97069e-06
-9.97856e-06
-9.98431e-06
-9.98851e-06
-9.99159e-06
-9.99385e-06
-9.9955e-06
-9.99671e-06
-9.99759e-06
-9.99824e-06
-9.99871e-06
-9.99906e-06
-9.99931e-06
-9.9995e-06
-9.99964e-06
-9.99974e-06
-9.99981e-06
-9.99986e-06
-9.9999e-06
-9.99993e-06
-9.99995e-06
-9.99996e-06
-9.99998e-06
-9.99998e-06
-9.99999e-06
-9.99999e-06
-1e-05
-1e-05
-1e-05
-1e-05
-1e-05
-1e-05
-1e-05
-1e-05
-1e-05
-1e-05
-1e-05
-1e-05
-1e-05
-1e-05
-1e-05
-9.99999e-06
-9.99999e-06
-9.99999e-06
-9.99998e-06
-9.99998e-06
-9.99997e-06
-9.99996e-06
-9.99994e-06
-9.99992e-06
-9.99989e-06
-9.99985e-06
-9.99979e-06
-9.99971e-06
-9.99961e-06
-9.99947e-06
-9.99927e-06
-9.999e-06
-9.99863e-06
-9.99813e-06
-9.99742e-06
-9.99645e-06
-9.99509e-06
-9.99319e-06
-9.99047e-06
-9.98655e-06
-9.98075e-06
-9.97189e-06
-9.95774e-06
-9.9337e-06
-9.88935e-06
-9.79823e-06
-9.58683e-06
-9.24518e-06
-9.64785e-06
-1.01891e-05
-1.04858e-05
-1.06516e-05
-1.06709e-05
-1.06778e-05
-1.07269e-05
-1.07469e-05
-1.0722e-05
-1.06418e-05
-1.05839e-05
-1.05577e-05
-1.04609e-05
-1.04187e-05
-1.0398e-05
-1.03595e-05
-1.02514e-05
)
;

boundaryField
{
    inlet
    {
        type            calculated;
        value           nonuniform List<scalar> 10(-1e-05 -1e-05 -1e-05 -1e-05 -1e-05 -1e-05 -1e-05 -1e-05 -1e-05 -1e-05);
    }
    outlet
    {
        type            calculated;
        value           nonuniform List<scalar> 10(1.06687e-05 1.03793e-05 1.02291e-05 1.01258e-05 1.00404e-05 9.95966e-06 9.87418e-06 9.77097e-06 9.62069e-06 9.33128e-06);
    }
    walls
    {
        type            calculated;
        value           uniform 0;
    }
}


// ************************************************************************* //
