/*--------------------------------*- C++ -*----------------------------------*\
| =========                 |                                                 |
| \\      /  F ield         | foam-extend: Open Source CFD                    |
|  \\    /   O peration     | Version:     5.0                                |
|   \\  /    A nd           | Web:         http://www.foam-extend.org         |
|    \\/     M anipulation  |                                                 |
\*---------------------------------------------------------------------------*/
FoamFile
{
    version     2.0;
    format      ascii;
    class       surfaceScalarField;
    location    "2000";
    object      phi.gas;
}
// * * * * * * * * * * * * * * * * * * * * * * * * * * * * * * * * * * * * * //

dimensions      [0 3 -1 0 0 0 0];

internalField   nonuniform List<scalar> 
1890
(
0
0
0
0
0
0
0
0
0
0
0
0
0
0
0
0
0
0
0
0
0
0
0
0
0
0
0
0
0
0
0
0
0
0
0
0
0
0
0
0
0
0
0
0
0
0
0
0
0
0
0
0
0
0
0
0
0
0
0
0
0
0
0
0
0
0
0
0
0
0
0
0
0
0
0
0
0
0
0
0
0
0
0
0
0
0
0
0
0
0
0
0
0
0
0
0
0
0
0
0
0
0
0
0
0
0
0
0
0
0
0
0
0
0
0
0
0
0
0
0
0
0
0
0
0
0
0
0
0
0
0
0
0
0
0
0
0
0
0
0
0
0
0
0
0
0
0
0
0
0
0
0
0
0
0
0
0
0
0
0
4.12757e-17
-2.10182e-21
-5.93956e-09
-8.90329e-12
-1.18584e-06
-1.41318e-09
-2.32577e-05
-2.56454e-08
-5.81517e-05
-3.69509e-06
-6.4566e-05
-2.15366e-06
-6.46765e-05
-6.73539e-07
-6.47298e-05
-8.44497e-08
-6.17884e-05
3.85379e-07
-5.94309e-05
5.54836e-07
-5.67835e-05
6.62864e-07
-5.95745e-05
8.19299e-07
-7.19309e-05
5.01195e-07
-6.84944e-05
1.69816e-07
-6.29219e-05
4.37851e-07
-5.74481e-05
7.85624e-07
-5.55701e-05
8.28113e-07
-5.78959e-05
1.05691e-06
-5.84888e-05
3.63402e-07
8.48779e-07
0
0
0
0
0
0
0
0
0
0
0
0
0
0
0
0
0
0
0
0
0
0
0
0
0
0
0
0
0
0
0
0
0
0
0
0
0
0
0
0
0
0
0
0
0
0
0
0
0
0
0
0
0
0
0
0
0
0
0
0
0
0
0
0
0
0
0
0
0
0
0
0
0
0
0
0
0
0
0
0
0
0
0
0
0
0
0
0
0
0
0
0
0
0
0
0
0
0
0
0
0
0
0
0
0
0
0
0
0
0
0
0
0
0
0
0
0
0
0
0
0
0
0
0
0
0
0
0
0
0
0
0
0
0
0
0
0
0
0
0
0
0
0
0
0
0
0
0
0
0
0
0
0
0
0
0
0
0
2.35614e-16
0
-9.23806e-09
-1.03279e-17
-1.4457e-06
3.84784e-10
-3.13575e-05
2.9419e-08
-6.91101e-05
8.5212e-07
-7.49878e-05
1.06374e-06
-6.58352e-05
2.19818e-07
-6.12977e-05
4.78592e-07
-7.1586e-05
2.52359e-07
-7.90698e-05
7.54112e-08
-7.43189e-05
3.79592e-07
-8.22538e-05
6.11113e-07
-8.03266e-05
3.98265e-07
-6.43045e-05
4.1684e-07
-6.3846e-05
4.55127e-07
-7.6943e-05
3.06322e-07
-7.23303e-05
2.73638e-07
-7.1013e-05
9.72956e-07
-6.10471e-05
8.903e-07
-5.79063e-05
5.87738e-07
5.76065e-07
0
0
0
0
0
0
0
0
0
0
0
0
0
0
0
0
0
0
0
0
0
0
0
0
0
0
0
0
0
0
0
0
0
0
0
0
0
0
0
0
0
0
0
0
0
0
0
0
0
0
0
0
0
0
0
0
0
0
0
0
0
0
0
0
0
0
0
0
0
0
0
0
0
0
0
0
0
0
0
0
0
0
0
0
0
0
0
0
0
0
0
0
0
0
0
0
0
0
0
0
0
0
0
0
0
0
0
0
0
0
0
0
0
0
0
0
0
0
0
0
0
0
0
0
0
0
0
0
0
0
0
0
0
0
0
0
0
0
0
0
0
0
0
0
0
0
0
0
0
0
0
0
0
0
0
0
3.12111e-86
0
7.72183e-31
-3.35116e-36
-2.52648e-12
-2.4815e-14
-5.49148e-08
-1.16041e-10
-5.6377e-06
-6.50095e-09
-4.95623e-05
-1.54541e-06
-6.11482e-05
-4.64893e-06
-7.11049e-05
-1.66099e-06
-6.46591e-05
-4.00011e-07
-5.75497e-05
3.24447e-07
-5.94407e-05
5.08528e-07
-6.64099e-05
7.23763e-07
-6.39924e-05
6.86427e-07
-5.98773e-05
7.75887e-07
-6.20233e-05
6.91142e-07
-5.82483e-05
5.1655e-07
-5.40525e-05
7.35009e-07
-6.40856e-05
8.6967e-07
-7.70702e-05
8.38888e-07
-5.94781e-05
4.22808e-07
-5.64081e-05
1.01225e-06
4.47764e-07
0
0
0
0
0
0
0
0
0
0
0
0
0
0
0
0
0
0
0
0
0
0
0
0
0
0
0
0
0
0
0
0
0
0
0
0
0
0
0
0
0
0
0
0
0
0
0
0
0
0
0
0
0
0
0
0
0
0
0
0
0
0
0
0
0
0
0
0
0
0
0
0
0
0
0
0
0
0
0
0
0
0
0
0
0
0
0
0
0
0
0
0
0
0
0
0
0
0
0
0
0
0
0
0
0
0
0
0
0
0
0
0
0
0
0
0
0
0
0
0
0
0
0
0
0
0
0
0
0
0
0
0
0
0
0
0
0
0
0
0
0
0
0
0
0
0
0
0
0
0
0
0
0
0
0
0
2.30795e-26
0
-2.68472e-11
-9.42669e-28
-1.17313e-07
9.72875e-13
-6.73752e-06
2.10356e-09
-4.04362e-05
2.56593e-08
-8.31242e-05
2.57263e-06
-8.11632e-05
3.08601e-06
-8.37592e-05
4.9181e-07
-8.89234e-05
-3.04304e-07
-8.0446e-05
-3.1478e-07
-8.20935e-05
9.14351e-08
-8.28707e-05
2.86138e-07
-7.98388e-05
4.71498e-07
-7.63906e-05
5.62792e-07
-6.30787e-05
6.0852e-07
-5.98629e-05
8.11473e-07
-6.59559e-05
1.14146e-06
-7.37238e-05
1.28516e-06
-7.14932e-05
7.6049e-07
-6.93646e-05
1.956e-07
-6.72515e-05
1.52777e-07
5.38213e-08
0
0
0
0
0
0
0
0
0
0
0
0
0
0
0
0
0
0
0
0
0
0
0
0
0
0
0
0
0
0
0
0
0
0
0
0
0
0
0
0
0
0
0
0
0
0
0
0
0
0
0
0
0
0
0
0
0
0
0
0
0
0
0
0
0
0
0
0
0
0
0
0
0
0
0
0
0
0
0
0
0
0
0
0
0
0
0
0
0
0
0
0
0
0
0
0
0
0
0
0
0
0
0
0
0
0
0
0
0
0
0
0
0
0
0
0
0
0
0
0
0
0
0
0
0
0
0
0
0
0
0
0
0
0
0
0
0
0
0
0
0
0
0
0
0
0
0
0
0
0
0
0
0
0
0
0
0
0
6.0429e-23
0
-2.03951e-10
-2.47864e-24
-3.62001e-07
2.9932e-12
-9.52008e-06
4.73373e-09
-5.78262e-05
5.37906e-08
-6.27446e-05
1.74837e-07
-6.45347e-05
1.47132e-07
-6.14904e-05
1.66441e-07
-6.4207e-05
2.21708e-07
-6.94643e-05
2.2829e-07
-6.74394e-05
4.44842e-07
-6.4113e-05
8.77753e-07
-6.10255e-05
1.12624e-06
-6.05258e-05
9.69495e-07
-6.88108e-05
1.158e-06
-8.14928e-05
7.81318e-07
-7.93546e-05
1.06801e-06
-6.3625e-05
7.97156e-07
-6.05573e-05
3.81985e-07
-6.38213e-05
-3.10225e-08
-2.23201e-07
0
0
0
0
0
0
0
0
0
0
0
0
0
0
0
0
0
0
0
0
0
0
0
0
0
0
0
0
0
0
0
0
0
0
0
0
0
0
0
0
0
0
0
0
0
0
0
0
0
0
0
0
0
0
0
0
0
0
0
0
0
0
0
0
0
0
0
0
0
0
0
0
0
0
0
0
0
0
0
0
0
0
0
0
0
0
0
0
0
0
0
0
0
0
0
0
0
0
0
0
0
0
0
0
0
0
0
0
0
0
0
0
0
0
0
0
0
0
0
0
0
0
0
0
0
0
0
0
0
0
0
0
0
0
0
0
0
0
0
0
0
0
0
0
0
0
0
0
0
0
0
0
0
0
0
0
0
0
1.52445e-22
0
-2.57496e-10
-7.17067e-17
-4.07966e-07
-3.98502e-11
-1.52143e-05
-1.14667e-09
-5.66824e-05
-1.21602e-06
-7.79988e-05
-2.62156e-06
-7.50095e-05
-1.99262e-06
-6.34638e-05
-6.76477e-07
-5.74449e-05
4.53485e-07
-5.79738e-05
6.83813e-07
-6.64847e-05
8.44391e-07
-7.6584e-05
7.67476e-07
-6.77796e-05
1.06004e-06
-6.58445e-05
1.02736e-06
-6.10782e-05
7.42298e-07
-6.39071e-05
1.01621e-06
-7.74374e-05
8.55281e-07
-6.01036e-05
1.82175e-07
-4.9165e-05
7.11815e-07
-4.8493e-05
6.30317e-07
1.22837e-06
0
0
0
0
0
0
0
0
0
0
0
0
0
0
0
0
0
0
0
0
0
0
0
0
0
0
0
0
0
0
0
0
0
0
0
0
0
0
0
0
0
0
0
0
0
0
0
0
0
0
0
0
0
0
0
0
0
0
0
0
0
0
0
0
0
0
0
0
0
0
0
0
0
0
0
0
0
0
0
0
0
0
0
0
0
0
0
0
0
0
0
0
0
0
0
0
0
0
0
0
0
0
0
0
0
0
0
0
0
0
0
0
0
0
0
0
0
0
0
0
0
0
0
0
0
0
0
0
0
0
0
0
0
0
0
0
0
0
0
0
0
0
0
0
0
0
0
0
0
0
0
0
0
0
0
0
0
0
1.6512e-13
0
-4.15835e-08
-8.45435e-15
-3.42284e-06
1.11144e-09
-4.27906e-05
4.67912e-08
-6.4662e-05
-3.20389e-07
-6.86767e-05
-1.39892e-06
-6.88008e-05
-1.05137e-06
-7.59807e-05
-4.25369e-07
-7.42822e-05
2.75345e-07
-7.09161e-05
9.63025e-07
-7.1941e-05
1.14245e-06
-7.97581e-05
8.08844e-07
-8.52962e-05
5.32463e-07
-6.7189e-05
7.79715e-07
-6.86208e-05
9.24495e-07
-8.37331e-05
8.45382e-07
-6.50234e-05
8.00386e-07
-5.99123e-05
6.32112e-07
-6.02035e-05
7.52051e-07
-6.13868e-05
1.11312e-06
3.6395e-07
0
0
0
0
0
0
0
0
0
0
0
0
0
0
0
0
0
0
0
0
0
0
0
0
0
0
0
0
0
0
0
0
0
0
0
0
0
0
0
0
0
0
0
0
0
0
0
0
0
0
0
0
0
0
0
0
0
0
0
0
0
0
0
0
0
0
0
0
0
0
0
0
0
0
0
0
0
0
0
0
0
0
0
0
0
0
0
0
0
0
0
0
0
0
0
0
0
0
0
0
0
0
0
0
0
0
0
0
0
0
0
0
0
0
0
0
0
0
0
0
0
0
0
0
0
0
0
0
0
0
0
0
0
0
0
0
0
0
0
0
0
0
0
0
0
0
0
0
0
0
0
0
0
0
0
0
0
0
6.65879e-14
-5.54623e-32
-4.45527e-08
-1.15286e-13
-2.8796e-06
-3.73802e-11
-3.24533e-05
5.13128e-09
-7.54204e-05
-1.64201e-06
-6.73367e-05
-1.63856e-06
-6.74317e-05
-6.77275e-07
-7.70114e-05
-2.28424e-07
-8.7768e-05
2.22294e-08
-9.23481e-05
5.22039e-07
-8.05879e-05
7.66015e-07
-6.49824e-05
7.14095e-07
-6.35034e-05
7.79876e-07
-7.08171e-05
9.15321e-07
-7.53362e-05
7.65326e-07
-8.05478e-05
2.52114e-07
-6.58882e-05
1.60698e-07
-5.48525e-05
9.79537e-07
-6.00065e-05
1.23523e-06
-5.69126e-05
9.05212e-07
9.89175e-07
0
0
0
0
0
0
0
0
0
0
0
0
0
0
0
0
0
0
0
0
0
0
0
0
0
0
0
0
0
0
0
0
0
0
0
0
0
0
0
0
0
0
0
0
0
0
0
0
0
0
0
0
0
0
0
0
0
0
0
0
0
0
0
0
0
0
0
0
0
0
0
0
0
0
0
0
0
0
0
0
0
0
0
0
0
0
0
0
0
0
0
0
0
0
0
0
0
0
0
0
0
0
0
0
0
0
0
0
0
0
0
0
0
0
0
0
0
0
0
0
0
0
0
0
0
0
0
0
0
0
0
0
0
0
0
0
0
0
0
0
0
0
0
0
0
0
0
0
0
0
0
0
0
0
0
0
1.43948e-23
0
-1.25226e-10
-1.22101e-18
-3.09254e-07
-2.6855e-11
-1.12389e-05
-4.07699e-10
-6.07358e-05
-3.2439e-07
-7.05292e-05
-2.76699e-06
-7.11151e-05
-1.36537e-06
-6.95273e-05
-4.80336e-07
-6.85076e-05
3.95379e-07
-8.02127e-05
4.22099e-07
-9.41729e-05
8.01776e-08
-8.21644e-05
2.50294e-07
-7.12652e-05
4.8233e-07
-7.45074e-05
9.10161e-07
-7.96014e-05
7.29907e-07
-6.47191e-05
3.90049e-07
-5.74622e-05
8.12094e-07
-7.00298e-05
3.75267e-07
-8.27027e-05
2.68894e-07
-6.79993e-05
3.60054e-07
-5.5899e-05
6.90956e-07
1.52899e-06
0
0
0
0
0
0
0
0
0
0
0
0
0
0
0
0
0
0
0
0
0
0
0
0
0
0
0
0
0
0
0
0
0
0
0
0
0
0
0
0
0
0
0
0
0
0
0
0
0
0
0
0
0
0
0
0
0
0
0
0
0
0
0
0
0
0
0
0
0
0
0
0
0
0
0
0
0
0
1.26463e-14
-2.74771e-08
-2.7171e-06
-3.01135e-05
-7.78681e-05
-8.56769e-05
-7.56594e-05
-8.3132e-05
-9.28497e-05
-7.79417e-05
-7.42609e-05
-7.52165e-05
-8.29701e-05
-8.85402e-05
-7.14751e-05
-7.45318e-05
-7.19525e-05
-6.22306e-05
-6.49537e-05
-6.42594e-05
-6.63563e-05
)
;

boundaryField
{
    inlet
    {
        type            fixedValue;
        value           nonuniform List<scalar> 10(-5e-05 -5e-05 -5e-05 -5e-05 -5e-05 -5e-05 -5e-05 -5e-05 -5e-05 -5e-05);
    }
    outlet
    {
        type            calculated;
        value           uniform 0;
    }
    walls
    {
        type            fixedValue;
        value           uniform 0;
    }
}


// ************************************************************************* //
