/*--------------------------------*- C++ -*----------------------------------*\
| =========                 |                                                 |
| \\      /  F ield         | foam-extend: Open Source CFD                    |
|  \\    /   O peration     | Version:     5.0                                |
|   \\  /    A nd           | Web:         http://www.foam-extend.org         |
|    \\/     M anipulation  |                                                 |
\*---------------------------------------------------------------------------*/
FoamFile
{
    version     2.0;
    format      ascii;
    class       surfaceScalarField;
    location    "2000";
    object      phi.oil;
}
// * * * * * * * * * * * * * * * * * * * * * * * * * * * * * * * * * * * * * //

dimensions      [0 3 -1 0 0 0 0];

internalField   nonuniform List<scalar> 
1890
(
-6.13003e-05
-1.27022e-06
-5.41298e-05
-7.37286e-07
-4.97551e-05
-4.13957e-07
-4.83e-05
-3.2451e-07
-5.05171e-05
-2.08319e-07
-6.10619e-05
-1.61179e-07
-6.48701e-05
-1.31263e-07
-6.08491e-05
-9.23372e-08
-5.27859e-05
-5.12749e-08
-5.01073e-05
-4.13897e-08
-5.56429e-05
-2.73811e-08
-5.72086e-05
-2.33724e-08
-5.40996e-05
-1.57909e-08
-5.55899e-05
-1.28814e-08
-5.00226e-05
-9.16931e-09
-4.34927e-05
-5.49321e-09
-4.34888e-05
-4.31672e-09
-5.40637e-05
-3.24004e-09
-5.26385e-05
-2.79135e-09
-5.00048e-05
-1.47873e-09
-4.87839e-05
-1.27243e-09
-4.6514e-05
-8.87494e-10
-5.40561e-05
-7.18414e-10
-6.06078e-05
-6.05923e-10
-5.88248e-05
-4.18481e-10
-4.76198e-05
-2.98064e-10
-4.8781e-05
-1.78691e-10
-5.00004e-05
-1.47752e-10
-4.44447e-05
-9.38783e-11
-4.54548e-05
-7.0418e-11
-4.87807e-05
-5.05263e-11
-4.76192e-05
-4.28112e-11
-4.54546e-05
-3.22924e-11
-4.87806e-05
-2.09945e-11
-4.65117e-05
-1.74958e-11
-4.16667e-05
-1.04262e-11
-4.25532e-05
-8.20963e-12
-5.12821e-05
-6.18147e-12
-5.71429e-05
-5.40077e-12
-5.40541e-05
-3.68721e-12
-5.71429e-05
-2.86917e-12
-5.55556e-05
-1.78821e-12
-5e-05
-7.399e-13
-4.87805e-05
-5.35585e-14
-5.12821e-05
6.89869e-13
-5e-05
1.80204e-12
-5.55556e-05
2.59319e-12
-6.45162e-05
5.33395e-12
-5.26316e-05
6.65693e-12
-4.44445e-05
8.26849e-12
-4.87805e-05
1.10018e-11
-4.87805e-05
1.87115e-11
-4.65117e-05
2.25547e-11
-5.7143e-05
2.81603e-11
-6.06063e-05
4.59015e-11
-5.88238e-05
6.8379e-11
-5.12824e-05
1.02571e-10
-4.25535e-05
1.0107e-10
-4.16671e-05
1.26322e-10
-4.34789e-05
1.68901e-10
-4.65126e-05
2.91206e-10
-4.76204e-05
3.8711e-10
-4.65134e-05
4.67878e-10
-5.40569e-05
6.52416e-10
-5.12857e-05
1.27329e-09
-4.44488e-05
1.08245e-09
-4.8787e-05
1.96045e-09
-5.55656e-05
2.22554e-09
-6.4532e-05
3.92324e-09
-5.5574e-05
4.72019e-09
-5.55806e-05
6.52089e-09
-5.71776e-05
9.81894e-09
-4.76579e-05
1.19602e-08
-4.44931e-05
1.424e-08
-4.26154e-05
1.9356e-08
-4.55433e-05
2.04019e-08
-4.66334e-05
3.02642e-08
-4.77891e-05
4.23685e-08
-5.02539e-05
7.3529e-08
-4.68771e-05
1.32343e-07
-4.94674e-05
3.03661e-07
-6.06683e-05
1.01587e-06
-5.83976e-05
2.45588e-06
-5.23599e-05
-3.95354e-07
-4.82186e-05
-3.72179e-06
-3.98054e-05
-2.19687e-06
-3.39889e-05
-1.15905e-06
-2.97141e-05
-7.86712e-07
-2.51894e-05
-5.69922e-07
-2.11469e-05
-4.1457e-07
-1.79548e-05
-3.72373e-07
-1.62375e-05
-3.44128e-07
-1.75324e-05
-4.67384e-07
-1.53262e-05
-5.39009e-07
-1.17241e-05
-3.89497e-07
-9.21706e-06
-3.59948e-07
-6.5121e-06
-2.24511e-07
-5.07035e-06
-2.56381e-07
-2.63506e-06
-2.38904e-07
-1.51652e-07
-4.90941e-05
-1.44211e-06
-5.11656e-05
-1.12125e-06
-5.81241e-05
-8.60342e-07
-6.53277e-05
-5.86941e-07
-6.11639e-05
-4.58296e-07
-6.10143e-05
-2.64493e-07
-6.28081e-05
-2.13349e-07
-4.89565e-05
-1.39911e-07
-4.77449e-05
-9.96724e-08
-5.00968e-05
-9.05355e-08
-4.76865e-05
-5.08323e-08
-5.00519e-05
-4.44378e-08
-5.40952e-05
-2.92779e-08
-5.71747e-05
-2.31738e-08
-5.00204e-05
-1.79375e-08
-5.12974e-05
-1.24244e-08
-5.71554e-05
-8.21018e-09
-5.40627e-05
-5.86884e-09
-4.65171e-05
-4.40237e-09
-4.25569e-05
-3.07379e-09
-4.87836e-05
-2.48171e-09
-5.40566e-05
-1.72865e-09
-5.88256e-05
-1.3658e-09
-5.71443e-05
-1.08589e-09
-5.40551e-05
-6.62657e-10
-5.26323e-05
-6.1761e-10
-4.76195e-05
-3.73133e-10
-4.54549e-05
-2.60241e-10
-4.54548e-05
-1.90582e-10
-4.44446e-05
-1.33224e-10
-4.65118e-05
-1.07316e-10
-5.7143e-05
-7.85815e-11
-5.40542e-05
-6.05564e-11
-5.00001e-05
-4.10702e-11
-4.76191e-05
-3.2396e-11
-4.65117e-05
-2.30343e-11
-5e-05
-1.63296e-11
-5e-05
-1.31001e-11
-5.12821e-05
-9.07645e-12
-5.71429e-05
-6.84066e-12
-5.88236e-05
-4.74289e-12
-4.76191e-05
-2.13762e-12
-4.44445e-05
-6.35128e-13
-4.65116e-05
7.69899e-13
-5.12821e-05
2.07915e-12
-5.26316e-05
4.18753e-12
-5.40541e-05
5.40725e-12
-5.55556e-05
9.56555e-12
-5.12821e-05
1.34624e-11
-5.12821e-05
1.56392e-11
-5.40541e-05
2.64635e-11
-5.88236e-05
3.8505e-11
-4.87806e-05
4.46026e-11
-4.34784e-05
5.17082e-11
-5.26317e-05
7.73902e-11
-6.45164e-05
1.23337e-10
-5.71432e-05
1.73257e-10
-4.6512e-05
2.17905e-10
-4.25536e-05
2.69169e-10
-5.00007e-05
3.35477e-10
-5.88246e-05
6.58144e-10
-4.87817e-05
7.36769e-10
-4.54561e-05
9.55808e-10
-5.55582e-05
1.36971e-09
-5.12854e-05
2.20507e-09
-5.12866e-05
2.06325e-09
-5.26379e-05
3.63857e-09
-5.00082e-05
4.45668e-09
-5.12935e-05
7.49989e-09
-5.40704e-05
8.57284e-09
-6.25257e-05
1.21656e-08
-6.25347e-05
1.588e-08
-6.25468e-05
2.23566e-08
-6.25628e-05
2.60312e-08
-5.13508e-05
4.13953e-08
-4.17406e-05
4.40477e-08
-4.35796e-05
5.67589e-08
-4.55917e-05
8.6317e-08
-4.66887e-05
1.06833e-07
-5.02206e-05
1.88023e-07
-5.89992e-05
2.45371e-07
-5.36691e-05
1.67773e-07
-4.9677e-05
-7.97875e-07
-5.26267e-05
-4.36329e-07
-4.35961e-05
-1.06059e-06
-3.20362e-05
-1.2705e-06
-2.40153e-05
-9.09744e-07
-2.43123e-05
-8.26584e-07
-2.56586e-05
-9.15843e-07
-2.16395e-05
-7.2967e-07
-2.14972e-05
-6.70995e-07
-1.96847e-05
-6.89791e-07
-1.39384e-05
-5.71257e-07
-1.15946e-05
-4.75711e-07
-1.2156e-05
-4.84426e-07
-1.02669e-05
-4.79179e-07
-7.61242e-06
-3.26402e-07
-5.52526e-06
-3.86052e-07
-2.11779e-06
-2.09005e-07
-2.09627e-07
-5.10277e-05
-1.54905e-06
-6.35396e-05
-1.40128e-06
-5.95775e-05
-1.15262e-06
-5.60912e-05
-6.40402e-07
-5.16493e-05
-5.03155e-07
-4.67575e-05
-3.77148e-07
-4.56313e-05
-2.3811e-07
-5.01427e-05
-1.82474e-07
-6.26308e-05
-1.55794e-07
-5.56408e-05
-1.2441e-07
-5.41148e-05
-8.34924e-08
-5.56013e-05
-5.79142e-08
-5.00302e-05
-3.9303e-08
-5.4078e-05
-2.68171e-08
-6.25203e-05
-2.3352e-08
-5.12942e-05
-1.91724e-08
-4.16739e-05
-1.18794e-08
-4.34838e-05
-8.69886e-09
-4.87851e-05
-5.64604e-09
-5.71468e-05
-4.78722e-09
-5.12847e-05
-4.16281e-09
-4.76208e-05
-2.26849e-09
-5.12835e-05
-1.98414e-09
-4.762e-05
-1.24536e-09
-5.26324e-05
-9.3417e-10
-5.71435e-05
-8.24886e-10
-5.00004e-05
-5.13418e-10
-5.00003e-05
-4.06423e-10
-4.76193e-05
-2.75266e-10
-5.12822e-05
-1.71522e-10
-5.40542e-05
-1.55306e-10
-4.65117e-05
-9.59896e-11
-4.76191e-05
-8.54157e-11
-5.12821e-05
-5.25165e-11
-5.71429e-05
-4.82118e-11
-5.55556e-05
-3.616e-11
-5.55556e-05
-2.02725e-11
-6.06061e-05
-1.78349e-11
-6.25e-05
-1.1102e-11
-6.45162e-05
-1.00999e-11
-5.26316e-05
-5.17723e-12
-4.87805e-05
-2.40786e-12
-5.71429e-05
-8.09078e-13
-5.55556e-05
1.35144e-12
-5e-05
3.17014e-12
-4.65116e-05
6.27761e-12
-4.65116e-05
7.2555e-12
-5.55556e-05
1.20014e-11
-5e-05
1.97917e-11
-5.12821e-05
2.32801e-11
-6.45162e-05
4.00056e-11
-5.26316e-05
5.0114e-11
-4.54546e-05
6.15131e-11
-4.76191e-05
7.99603e-11
-5.00001e-05
1.24393e-10
-5.00002e-05
1.42225e-10
-5.26318e-05
1.98837e-10
-5.40544e-05
3.08185e-10
-4.87809e-05
4.20771e-10
-5.26321e-05
5.59314e-10
-5.40548e-05
7.84092e-10
-5.12831e-05
8.79833e-10
-5.55571e-05
1.35045e-09
-5.55576e-05
1.79687e-09
-4.76215e-05
2.8693e-09
-4.34813e-05
3.50774e-09
-5.00048e-05
4.433e-09
-5.88313e-05
7.44377e-09
-6.06169e-05
8.80692e-09
-5.12946e-05
1.22398e-08
-4.65272e-05
1.56999e-08
-4.76407e-05
1.87692e-08
-4.44719e-05
2.97381e-08
-4.65504e-05
3.12814e-08
-5.41145e-05
4.94244e-08
-5.41341e-05
7.14628e-08
-5.7252e-05
8.25209e-08
-5.41816e-05
1.22916e-07
-5.57066e-05
1.23528e-07
-5.73149e-05
2.22842e-07
-5.58457e-05
3.41239e-07
-5.12085e-05
1.15457e-06
-4.72102e-05
1.36153e-06
-5.28072e-05
-2.6192e-06
-4.7903e-05
-3.22179e-06
-3.83969e-05
-1.56079e-06
-3.34007e-05
-1.14975e-06
-2.38401e-05
-5.53805e-07
-2.11467e-05
-4.37502e-07
-2.11803e-05
-4.5185e-07
-1.88502e-05
-5.00232e-07
-1.52793e-05
-3.98756e-07
-1.39826e-05
-4.10044e-07
-1.15895e-05
-3.87669e-07
-8.88216e-06
-2.94468e-07
-8.27503e-06
-2.66297e-07
-8.74604e-06
-3.8772e-07
-5.41981e-06
-3.52101e-07
-2.21851e-06
-1.58885e-07
-2.1027e-07
-5.05849e-05
-1.94257e-06
-5.61029e-05
-1.25895e-06
-5.03912e-05
-1.20412e-06
-4.47113e-05
-6.63867e-07
-5.28693e-05
-4.91264e-07
-5.14543e-05
-4.26844e-07
-4.77372e-05
-2.91222e-07
-5.27277e-05
-2.13662e-07
-5.41266e-05
-1.93482e-07
-6.06657e-05
-1.20503e-07
-5.40931e-05
-1.10339e-07
-4.65362e-05
-6.63088e-08
-4.44617e-05
-4.20865e-08
-4.54675e-05
-2.88943e-08
-5.26426e-05
-2.47717e-08
-6.06153e-05
-1.85934e-08
-6.66741e-05
-1.60183e-08
-5.40585e-05
-1.32937e-08
-4.87834e-05
-7.68518e-09
-5.71454e-05
-5.94025e-09
-5.55574e-05
-3.91485e-09
-5.40554e-05
-2.60609e-09
-5.1283e-05
-2.26936e-09
-4.87811e-05
-1.39738e-09
-5.40546e-05
-1.04702e-09
-5.12824e-05
-8.67539e-10
-5.40544e-05
-5.48604e-10
-5.40543e-05
-4.41848e-10
-4.44446e-05
-3.49725e-10
-4.34784e-05
-2.0155e-10
-4.34784e-05
-1.65088e-10
-5.12821e-05
-1.10299e-10
-5.12821e-05
-1.00299e-10
-5.00001e-05
-6.78046e-11
-5.88236e-05
-5.99818e-11
-4.76191e-05
-3.69485e-11
-4.54546e-05
-2.32063e-11
-4.54546e-05
-1.7868e-11
-5e-05
-1.17949e-11
-5.12821e-05
-9.09373e-12
-4.25532e-05
-6.13323e-12
-4.65116e-05
-2.8623e-12
-5.40541e-05
-8.1847e-13
-5.26316e-05
1.53108e-12
-5.71429e-05
3.73565e-12
-5.26316e-05
8.46123e-12
-4.65116e-05
9.43465e-12
-5.26316e-05
1.32123e-11
-5.88235e-05
1.98682e-11
-6.06061e-05
2.96818e-11
-5.55556e-05
4.07657e-11
-5.55556e-05
5.90058e-11
-5.55556e-05
7.05844e-11
-5.71429e-05
1.13445e-10
-5.12821e-05
1.69925e-10
-4.44445e-05
1.63482e-10
-4.87806e-05
2.28425e-10
-5.40542e-05
3.52949e-10
-5.88238e-05
5.23248e-10
-5.40544e-05
6.94609e-10
-4.44449e-05
8.75429e-10
-4.34788e-05
1.10978e-09
-4.44452e-05
1.41388e-09
-5.00012e-05
2.28503e-09
-6.25021e-05
3.20185e-09
-5.71455e-05
4.36678e-09
-5.5559e-05
5.50593e-09
-5.12865e-05
9.37457e-09
-4.54599e-05
9.49298e-09
-5.12904e-05
1.23257e-08
-4.76298e-05
1.88036e-08
-4.87957e-05
2.25998e-08
-4.88015e-05
4.14924e-08
-4.4471e-05
4.57939e-08
-5.13242e-05
5.77696e-08
-5.13393e-05
9.58445e-08
-5.13575e-05
1.11415e-07
-5.00897e-05
1.14858e-07
-5.00849e-05
1.34735e-07
-5.12663e-05
7.96014e-08
-4.71424e-05
-1.33943e-07
-4.47713e-05
-1.04767e-06
-3.89488e-05
-1.81073e-06
-3.7245e-05
8.06993e-07
-4.1206e-05
-5.07999e-07
-3.40177e-05
-1.0665e-06
-3.43196e-05
-1.41057e-06
-2.81485e-05
-1.12384e-06
-2.56487e-05
-8.75736e-07
-2.41961e-05
-8.21748e-07
-2.0995e-05
-6.4443e-07
-1.83936e-05
-5.74959e-07
-1.35488e-05
-4.68243e-07
-1.06638e-05
-3.29714e-07
-1.00625e-05
-3.45242e-07
-9.39625e-06
-3.7464e-07
-7.71063e-06
-4.53276e-07
-5.15608e-06
-3.68418e-07
-3.23409e-06
-3.46115e-07
-2.24919e-07
-5.14768e-05
-2.01169e-06
-4.89393e-05
-1.20045e-06
-5.01312e-05
-1.14066e-06
-4.26397e-05
-7.55148e-07
-4.26188e-05
-5.75238e-07
-4.76739e-05
-4.35664e-07
-4.76597e-05
-3.20692e-07
-5.26647e-05
-2.00459e-07
-5.40791e-05
-2.09424e-07
-5.12995e-05
-1.33307e-07
-5.88382e-05
-9.51671e-08
-4.87894e-05
-7.34782e-08
-4.16723e-05
-4.74089e-08
-4.44488e-05
-3.55664e-08
-4.6515e-05
-2.81019e-08
-4.87831e-05
-2.05788e-08
-5.88258e-05
-1.54768e-08
-6.4518e-05
-1.35268e-08
-6.06074e-05
-9.59569e-09
-4.87813e-05
-6.24586e-09
-4.16672e-05
-3.50318e-09
-4.5455e-05
-3.01414e-09
-4.76194e-05
-2.15328e-09
-4.34785e-05
-1.74718e-09
-4.54547e-05
-1.02903e-09
-4.65118e-05
-9.9027e-10
-4.25533e-05
-5.90166e-10
-5.00001e-05
-4.53164e-10
-5.12821e-05
-3.40048e-10
-4.65117e-05
-2.55293e-10
-4.76191e-05
-1.73489e-10
-4.54546e-05
-1.3002e-10
-5.26316e-05
-9.06495e-11
-6.06061e-05
-7.30156e-11
-5.26316e-05
-6.49085e-11
-4.76191e-05
-3.87417e-11
-4.65117e-05
-2.80455e-11
-4.65117e-05
-1.78366e-11
-4.44445e-05
-1.25867e-11
-5.12821e-05
-9.69742e-12
-5.71429e-05
-6.88e-12
-5e-05
-3.3734e-12
-5e-05
-8.157e-13
-4.87805e-05
1.55537e-12
-5.40541e-05
4.12834e-12
-5.71429e-05
7.77259e-12
-4.76191e-05
1.23699e-11
-4.44445e-05
1.58209e-11
-4.65116e-05
2.2685e-11
-4.87805e-05
3.21763e-11
-5.55556e-05
4.18275e-11
-5.12821e-05
6.7965e-11
-5.26316e-05
6.6045e-11
-6.66667e-05
1.12751e-10
-5.55556e-05
1.63013e-10
-4.76191e-05
2.04534e-10
-5e-05
2.64963e-10
-5.55556e-05
3.71342e-10
-5.40541e-05
6.022e-10
-5.26317e-05
6.12035e-10
-5.55557e-05
1.05714e-09
-4.87807e-05
1.22724e-09
-5.26319e-05
1.59632e-09
-5.71433e-05
2.3479e-09
-4.76196e-05
3.20659e-09
-4.76198e-05
3.88151e-09
-5.55568e-05
5.42372e-09
-5.55573e-05
1.02721e-08
-4.54566e-05
9.8795e-09
-4.34811e-05
1.28954e-08
-4.6516e-05
2.12883e-08
-5.40614e-05
2.5045e-08
-6.25125e-05
3.8416e-08
-5.40702e-05
5.79988e-08
-5.55807e-05
6.83429e-08
-6.67128e-05
1.01155e-07
-5.13366e-05
1.35888e-07
-5.00823e-05
1.39215e-07
-5.01293e-05
2.00021e-07
-4.18491e-05
1.47387e-07
-4.58794e-05
8.31863e-08
-5.41757e-05
-1.09436e-07
-5.15447e-05
-4.05644e-07
-4.65998e-05
-1.20304e-06
-4.30448e-05
-1.40177e-06
-3.23748e-05
-1.16309e-06
-2.71306e-05
-1.05727e-06
-2.35776e-05
-7.75179e-07
-2.3498e-05
-7.58541e-07
-2.05712e-05
-6.31912e-07
-1.7478e-05
-5.24918e-07
-1.47222e-05
-4.48812e-07
-1.26647e-05
-3.96833e-07
-1.23564e-05
-4.17773e-07
-1.30671e-05
-4.66709e-07
-1.12844e-05
-5.4196e-07
-7.46681e-06
-5.05794e-07
-4.65922e-06
-3.59006e-07
-3.00642e-06
-3.59892e-07
-2.60998e-07
-4.74383e-05
-1.84033e-06
-4.74641e-05
-1.46311e-06
-5.11476e-05
-1.13723e-06
-5.54427e-05
-7.44826e-07
-5.8733e-05
-6.27726e-07
-5.25711e-05
-4.38077e-07
-4.44066e-05
-2.77984e-07
-4.75892e-05
-1.90932e-07
-5.87965e-05
-1.99345e-07
-5.26138e-05
-1.37717e-07
-4.76073e-05
-9.05345e-08
-5.26221e-05
-5.87736e-08
-5.71353e-05
-4.85612e-08
-5.88179e-05
-3.55621e-08
-6.06018e-05
-2.53909e-08
-5.88205e-05
-1.907e-08
-5.88213e-05
-1.51282e-08
-6.24983e-05
-9.97013e-09
-5.71417e-05
-8.84942e-09
-4.76184e-05
-5.21568e-09
-5.12815e-05
-3.91469e-09
-5.40537e-05
-3.18503e-09
-5.55553e-05
-2.09899e-09
-5.40539e-05
-1.7565e-09
-5.40539e-05
-1.15422e-09
-5.71428e-05
-1.09863e-09
-5.4054e-05
-6.03267e-10
-4.87805e-05
-5.04739e-10
-5e-05
-3.31579e-10
-5.26316e-05
-2.62901e-10
-4.87805e-05
-1.57389e-10
-5e-05
-1.44715e-10
-4.54546e-05
-9.02975e-11
-5.26316e-05
-6.59322e-11
-6.06061e-05
-5.79513e-11
-5.55556e-05
-3.49234e-11
-5e-05
-2.4645e-11
-4.44445e-05
-1.6846e-11
-5.26316e-05
-1.37242e-11
-5.71429e-05
-1.04264e-11
-5.26316e-05
-6.39522e-12
-5.88235e-05
-3.24318e-12
-5.26316e-05
-6.16273e-13
-4.87805e-05
1.46098e-12
-5.12821e-05
4.50178e-12
-5.71429e-05
6.45359e-12
-6.66667e-05
1.15666e-11
-6.66667e-05
1.4782e-11
-6.66667e-05
2.29391e-11
-6.06061e-05
2.91085e-11
-5.88235e-05
4.4588e-11
-5.26316e-05
6.68599e-11
-4.65116e-05
7.6506e-11
-5e-05
8.7831e-11
-5.71428e-05
1.50733e-10
-5.88235e-05
1.94662e-10
-5.4054e-05
2.73176e-10
-5.88234e-05
3.12318e-10
-5.26315e-05
5.24055e-10
-5.12819e-05
5.96529e-10
-5.26314e-05
1.10411e-09
-4.87803e-05
1.16913e-09
-4.65113e-05
1.68175e-09
-4.65112e-05
1.89885e-09
-4.87799e-05
3.51223e-09
-4.44438e-05
4.08276e-09
-5.26305e-05
5.72906e-09
-5.12807e-05
8.7388e-09
-4.34768e-05
9.97585e-09
-5.26293e-05
1.36779e-08
-5.12793e-05
2.02187e-08
-4.34755e-05
2.85204e-08
-4.76159e-05
3.63837e-08
-5.26288e-05
5.14042e-08
-4.99999e-05
6.59766e-08
-4.87871e-05
9.54561e-08
-5.13051e-05
1.41724e-07
-5.26915e-05
1.71259e-07
-4.77439e-05
2.49244e-07
-4.37342e-05
3.28174e-07
-4.60702e-05
4.92944e-07
-5.17082e-05
9.19277e-07
-6.0183e-05
9.91009e-07
-5.88727e-05
-3.76341e-06
-4.96724e-05
-3.4147e-06
-4.3895e-05
-2.2223e-06
-3.16789e-05
-1.21357e-06
-2.34165e-05
-5.20789e-07
-2.04487e-05
-3.61326e-07
-2.0793e-05
-3.59743e-07
-2.23744e-05
-4.69006e-07
-1.83293e-05
-4.73932e-07
-1.53559e-05
-3.3231e-07
-1.31151e-05
-3.80239e-07
-1.11333e-05
-2.76775e-07
-1.24016e-05
-4.57317e-07
-8.38217e-06
-4.13448e-07
-4.73946e-06
-2.14258e-07
-2.6383e-06
-1.70338e-07
-7.44226e-08
-5.98973e-05
-1.84212e-06
-6.38806e-05
-1.68154e-06
-5.22199e-05
-1.05382e-06
-4.84877e-05
-6.89664e-07
-4.97743e-05
-4.90576e-07
-4.5302e-05
-3.58291e-07
-4.33705e-05
-2.68637e-07
-5.25356e-05
-1.63062e-07
-5.87447e-05
-1.47595e-07
-5.5501e-05
-1.00135e-07
-4.87454e-05
-7.5143e-08
-4.4421e-05
-5.23984e-08
-4.64937e-05
-4.13183e-08
-4.44319e-05
-2.68169e-08
-4.34693e-05
-1.87829e-08
-4.87731e-05
-1.43791e-08
-4.76138e-05
-1.2869e-08
-4.87766e-05
-7.88941e-09
-5.1279e-05
-7.5277e-09
-5.12799e-05
-4.78689e-09
-5.40524e-05
-3.50519e-09
-5.12809e-05
-2.37883e-09
-5.12812e-05
-1.66082e-09
-5.40534e-05
-1.18842e-09
-6.24995e-05
-1.19644e-09
-5.71425e-05
-9.34359e-10
-5.26314e-05
-5.86312e-10
-6.06059e-05
-4.29184e-10
-5.71427e-05
-3.14116e-10
-4.7619e-05
-2.117e-10
-5.26315e-05
-1.47109e-10
-5.55555e-05
-1.1627e-10
-5.26316e-05
-7.48234e-11
-5.40541e-05
-6.74327e-11
-4.76191e-05
-4.90945e-11
-4.25532e-05
-3.02772e-11
-4.34783e-05
-1.85857e-11
-5.40541e-05
-1.38558e-11
-5.88235e-05
-1.14894e-11
-5.88235e-05
-8.18082e-12
-6.06061e-05
-5.23901e-12
-5.12821e-05
-2.71479e-12
-4.44445e-05
-2.76062e-13
-4.87805e-05
1.52576e-12
-5.12821e-05
3.61733e-12
-4.76191e-05
5.15873e-12
-4.54545e-05
7.97676e-12
-4.54545e-05
1.21186e-11
-4.65116e-05
1.5665e-11
-5.1282e-05
2.49222e-11
-6.45161e-05
3.50138e-11
-6.66666e-05
5.36018e-11
-5.26315e-05
6.35149e-11
-5.1282e-05
7.84036e-11
-5.4054e-05
1.32159e-10
-5.12819e-05
1.49583e-10
-4.76189e-05
1.9935e-10
-4.54544e-05
2.9316e-10
-5.12818e-05
4.46171e-10
-5.88231e-05
5.3334e-10
-6.06055e-05
8.32892e-10
-5.40533e-05
1.13839e-09
-4.87796e-05
1.26686e-09
-5.40527e-05
1.96073e-09
-6.06041e-05
2.61433e-09
-5.88209e-05
3.87827e-09
-5.55522e-05
6.17286e-09
-5.26272e-05
6.56481e-09
-5.26257e-05
9.02333e-09
-4.65046e-05
1.27487e-08
-5.2621e-05
1.59754e-08
-6.05899e-05
2.80258e-08
-5.12642e-05
3.40716e-08
-4.44247e-05
4.14675e-08
-4.543e-05
6.61112e-08
-5.25999e-05
8.81571e-08
-4.75933e-05
1.66911e-07
-4.44371e-05
1.97928e-07
-5.13272e-05
3.34973e-07
-5.90001e-05
5.05682e-07
-6.09361e-05
5.98266e-07
-5.17227e-05
6.81467e-07
-5.02639e-05
-4.59456e-07
-4.74875e-05
-2.51014e-06
-3.51453e-05
-2.54724e-06
-3.01989e-05
-1.69302e-06
-2.92445e-05
-1.13563e-06
-2.69715e-05
-9.13708e-07
-2.25452e-05
-5.51716e-07
-2.09814e-05
-5.59538e-07
-2.07187e-05
-5.46625e-07
-2.08719e-05
-6.16883e-07
-1.48717e-05
-5.14927e-07
-1.25781e-05
-3.79504e-07
-1.40341e-05
-5.25247e-07
-9.76987e-06
-5.59327e-07
-6.39308e-06
-3.13791e-07
-5.08612e-06
-3.23312e-07
-2.41644e-06
-2.1925e-07
-2.45819e-07
-5.76147e-05
-1.71494e-06
-5.78452e-05
-1.21736e-06
-5.48436e-05
-7.3129e-07
-5.21243e-05
-6.41967e-07
-4.9642e-05
-3.41057e-07
-5.68409e-05
-2.58042e-07
-4.98057e-05
-2.32744e-07
-4.24318e-05
-1.3015e-07
-4.43515e-05
-1.02164e-07
-4.43764e-05
-8.07477e-08
-4.87258e-05
-4.7517e-08
-5.55099e-05
-4.44375e-08
-4.99699e-05
-3.346e-08
-4.44249e-05
-2.14354e-08
-4.54399e-05
-1.53121e-08
-5.127e-05
-1.2097e-08
-5.40447e-05
-8.85791e-09
-5.71357e-05
-5.73195e-09
-6.24943e-05
-5.0133e-09
-5.40504e-05
-3.47773e-09
-4.76167e-05
-2.68796e-09
-4.44429e-05
-1.72815e-09
-4.16656e-05
-1.20648e-09
-5.12811e-05
-8.2573e-10
-6.66658e-05
-7.51578e-10
-6.6666e-05
-6.16885e-10
-6.24996e-05
-4.65648e-10
-5.40538e-05
-3.02913e-10
-5.26314e-05
-1.81332e-10
-5.55554e-05
-1.3894e-10
-5.1282e-05
-1.2188e-10
-4.65116e-05
-8.65541e-11
-5.26315e-05
-5.82933e-11
-6.45161e-05
-5.01768e-11
-6.25e-05
-4.00907e-11
-5e-05
-2.48508e-11
-4.34783e-05
-1.38766e-11
-4.34783e-05
-1.07986e-11
-5e-05
-6.52986e-12
-5.40541e-05
-5.5042e-12
-5.55556e-05
-2.79342e-12
-5e-05
-1.66998e-12
-4.76191e-05
2.73028e-14
-4.87805e-05
1.57505e-12
-4.25532e-05
2.95274e-12
-4.16667e-05
4.1431e-12
-4.87805e-05
6.45633e-12
-4.87805e-05
9.26227e-12
-5.1282e-05
1.30778e-11
-5.55555e-05
1.88394e-11
-5.1282e-05
2.63873e-11
-4.87804e-05
3.4961e-11
-4.7619e-05
4.09695e-11
-5.4054e-05
5.58227e-11
-5.26315e-05
9.91649e-11
-4.54544e-05
1.17466e-10
-5.12818e-05
1.26906e-10
-6.66663e-05
2.77207e-10
-5.55551e-05
3.06959e-10
-4.87799e-05
3.44801e-10
-5.40532e-05
5.04864e-10
-4.87795e-05
8.28245e-10
-4.99986e-05
9.22046e-10
-4.99981e-05
1.5502e-09
-4.76166e-05
1.6887e-09
-6.06018e-05
2.91011e-09
-5.71373e-05
4.50977e-09
-4.76128e-05
4.47054e-09
-4.87717e-05
6.46273e-09
-5.12695e-05
8.93809e-09
-5.12649e-05
1.27294e-08
-4.99773e-05
1.82568e-08
-4.4417e-05
2.45008e-08
-4.99584e-05
3.18831e-08
-5.1225e-05
5.95439e-08
-5.25548e-05
7.37354e-08
-6.23848e-05
1.24763e-07
-6.23665e-05
2.2144e-07
-6.23788e-05
3.89136e-07
-4.87749e-05
5.61858e-07
-5.16153e-05
7.87767e-07
-5.29871e-05
1.63472e-06
-4.41607e-05
-8.99334e-07
-4.18246e-05
-3.46913e-06
-3.82094e-05
-2.6373e-06
-2.86323e-05
-1.3243e-06
-2.98236e-05
-1.01202e-06
-3.15816e-05
-8.83683e-07
-3.10644e-05
-8.37534e-07
-2.52278e-05
-7.19015e-07
-1.82199e-05
-5.12233e-07
-1.5405e-05
-3.8757e-07
-1.547e-05
-4.37077e-07
-1.47732e-05
-4.98014e-07
-1.39839e-05
-4.87076e-07
-1.03643e-05
-4.89262e-07
-6.48012e-06
-2.47643e-07
-5.05076e-06
-2.20584e-07
-3.25207e-06
-2.46341e-07
-1.33187e-07
-5.10014e-05
-1.17949e-06
-4.76434e-05
-7.37286e-07
-5.46017e-05
-4.35186e-07
-5.33742e-05
-2.9889e-07
-4.50362e-05
-2.1395e-07
-5.09368e-05
-1.44647e-07
-5.52818e-05
-1.09977e-07
-5.53552e-05
-6.87158e-08
-6.2335e-05
-5.82035e-08
-5.25298e-05
-4.13893e-08
-4.87115e-05
-2.94868e-08
-5.70837e-05
-2.10347e-08
-5.70995e-05
-1.62059e-08
-5.55247e-05
-1.21844e-08
-5.71197e-05
-8.46332e-09
-5.4038e-05
-5.89449e-09
-4.54447e-05
-4.11527e-09
-4.54473e-05
-3.23928e-09
-4.76135e-05
-2.71068e-09
-5.40495e-05
-1.69432e-09
-5.71393e-05
-1.58945e-09
-5.12797e-05
-9.08257e-10
-4.87789e-05
-6.49099e-10
-4.54535e-05
-4.75157e-10
-4.99991e-05
-3.56261e-10
-5.71421e-05
-2.60706e-10
-5.55551e-05
-2.44372e-10
-4.65113e-05
-1.39482e-10
-4.16665e-05
-9.08687e-11
-4.87803e-05
-6.49557e-11
-6.24999e-05
-6.55111e-11
-6.24999e-05
-5.23417e-11
-5.88235e-05
-3.27614e-11
-6.25e-05
-2.30945e-11
-6.0606e-05
-1.57973e-11
-5e-05
-1.1305e-11
-5e-05
-8.20504e-12
-4.76191e-05
-5.54277e-12
-4.54546e-05
-3.2884e-12
-4.54546e-05
-2.31742e-12
-4.76191e-05
-1.08945e-12
-5.26316e-05
-3.30341e-13
-5.26316e-05
3.99584e-13
-5.88235e-05
1.35969e-12
-5.55556e-05
2.47683e-12
-5.40541e-05
2.54202e-12
-5e-05
4.30256e-12
-5.26316e-05
4.47163e-12
-5.4054e-05
7.451e-12
-5.4054e-05
8.46716e-12
-5.88235e-05
1.55604e-11
-5.1282e-05
1.82537e-11
-4.54545e-05
2.2363e-11
-5.12819e-05
3.18636e-11
-6.06059e-05
4.95028e-11
-4.76189e-05
6.04763e-11
-5.12818e-05
7.65288e-11
-5.40537e-05
1.32847e-10
-4.34778e-05
1.32965e-10
-4.34777e-05
1.73852e-10
-4.99991e-05
3.01737e-10
-5.40527e-05
4.23943e-10
-5.26297e-05
4.97043e-10
-5.12796e-05
6.64531e-10
-5.40505e-05
1.03023e-09
-6.06006e-05
1.49163e-09
-5.12758e-05
2.10782e-09
-4.7611e-05
2.25722e-09
-4.87692e-05
3.89643e-09
-4.7604e-05
4.52361e-09
-4.99782e-05
6.6171e-09
-4.997e-05
9.30453e-09
-4.87399e-05
1.32341e-08
-4.99421e-05
2.11988e-08
-5.25464e-05
3.41192e-08
-4.75104e-05
4.21851e-08
-4.98381e-05
6.15234e-08
-5.85531e-05
1.29932e-07
-5.22953e-05
2.33443e-07
-4.50931e-05
4.1417e-07
-4.73969e-05
1.11266e-06
-5.24684e-05
1.76591e-06
-5.17595e-05
-2.14522e-06
-4.59035e-05
-3.35383e-06
-3.52686e-05
-1.76522e-06
-2.98943e-05
-1.0772e-06
-2.56914e-05
-6.74948e-07
-2.6647e-05
-6.2895e-07
-2.99561e-05
-7.91359e-07
-2.43553e-05
-7.11904e-07
-1.88735e-05
-4.9171e-07
-1.75639e-05
-4.03575e-07
-1.72314e-05
-4.78941e-07
-1.26955e-05
-4.59367e-07
-9.11026e-06
-3.12554e-07
-8.97698e-06
-3.51745e-07
-9.31945e-06
-4.21223e-07
-6.20155e-06
-3.47563e-07
-2.94397e-06
-1.87016e-07
-6.13737e-08
-4.67267e-05
-5.55164e-05
-4.7806e-05
-5.1879e-05
-6.18537e-05
-5.36476e-05
-4.52052e-05
-4.52724e-05
-4.63753e-05
-5.11721e-05
-5.2549e-05
-4.64582e-05
-4.9958e-05
-4.99692e-05
-4.44244e-05
-4.25392e-05
-5.12697e-05
-6.45048e-05
-5.8816e-05
-5.55503e-05
-5.2628e-05
-4.54523e-05
-4.65099e-05
-5.12807e-05
-4.76181e-05
-5.26308e-05
-5.40535e-05
-4.54542e-05
-4.44442e-05
-4.99998e-05
-6.06059e-05
-5.71428e-05
-5.1282e-05
-4.54545e-05
-4.44444e-05
-5.4054e-05
-5.40541e-05
-4.87805e-05
-5.12821e-05
-5.12821e-05
-4.76191e-05
-4.44445e-05
-5.12821e-05
-6.45161e-05
-5.12821e-05
-4.65116e-05
-4.65116e-05
-4.25532e-05
-4.34782e-05
-4.87805e-05
-5.4054e-05
-4.87804e-05
-5.26315e-05
-5.55554e-05
-4.87803e-05
-5.12818e-05
-5.55552e-05
-4.87801e-05
-4.34778e-05
-5.26308e-05
-6.06048e-05
-4.87791e-05
-4.25515e-05
-4.76165e-05
-5.40501e-05
-5.26263e-05
-4.87738e-05
-5.12724e-05
-5.2618e-05
-4.76021e-05
-4.75957e-05
-4.75866e-05
-5.40026e-05
-6.44294e-05
-5.25303e-05
-4.3356e-05
-4.63151e-05
-4.84571e-05
-4.49516e-05
-5.15718e-05
-5.52001e-05
-4.64144e-05
-4.24619e-05
-4.29807e-05
-3.35806e-05
-2.92337e-05
-3.21545e-05
-2.45389e-05
-2.0558e-05
-1.92378e-05
-1.89842e-05
-1.92821e-05
-1.41711e-05
-1.23952e-05
-1.1324e-05
-7.73499e-06
-6.4862e-06
-4.71987e-06
-2.62066e-06
)
;

boundaryField
{
    inlet
    {
        type            fixedValue;
        value           uniform 0;
    }
    outlet
    {
        type            calculated;
        value           nonuniform List<scalar> 10(5.92708e-05 4.94254e-05 4.44742e-05 4.82183e-05 6.69358e-05 4.97983e-05 5.48566e-05 5.14261e-05 5.34483e-05 3.88803e-05);
    }
    walls
    {
        type            fixedValue;
        value           uniform 0;
    }
}


// ************************************************************************* //
