/*--------------------------------*- C++ -*----------------------------------*\
| =========                 |                                                 |
| \\      /  F ield         | foam-extend: Open Source CFD                    |
|  \\    /   O peration     | Version:     5.0                                |
|   \\  /    A nd           | Web:         http://www.foam-extend.org         |
|    \\/     M anipulation  |                                                 |
\*---------------------------------------------------------------------------*/
FoamFile
{
    version     2.0;
    format      ascii;
    class       volVectorField;
    location    "2000";
    object      U.gas;
}
// * * * * * * * * * * * * * * * * * * * * * * * * * * * * * * * * * * * * * //

dimensions      [0 1 -1 0 0 0 0];

internalField   nonuniform List<vector> 
1000
(
(0 0 0)
(0 0 0)
(0 0 0)
(0 0 0)
(0 0 0)
(0 0 0)
(0 0 0)
(0 0 0)
(0 0 0)
(0 0 0)
(0 0 0)
(0 0 0)
(0 0 0)
(0 0 0)
(0 0 0)
(0 0 0)
(0 0 0)
(0 0 0)
(0 0 0)
(0 0 0)
(0 0 0)
(0 0 0)
(0 0 0)
(0 0 0)
(0 0 0)
(0 0 0)
(0 0 0)
(0 0 0)
(0 0 0)
(0 0 0)
(0 0 0)
(0 0 0)
(0 0 0)
(0 0 0)
(0 0 0)
(0 0 0)
(0 0 0)
(0 0 0)
(0 0 0)
(0 0 0)
(0 0 0)
(0 0 0)
(0 0 0)
(0 0 0)
(0 0 0)
(0 0 0)
(0 0 0)
(0 0 0)
(0 0 0)
(0 0 0)
(0 0 0)
(0 0 0)
(0 0 0)
(0 0 0)
(0 0 0)
(0 0 0)
(0 0 0)
(0 0 0)
(0 0 0)
(0 0 0)
(0 0 0)
(0 0 0)
(0 0 0)
(0 0 0)
(0 0 0)
(0 0 0)
(0 0 0)
(0 0 0)
(0 0 0)
(0 0 0)
(0 0 0)
(0 0 0)
(0 0 0)
(0 0 0)
(0 0 0)
(0 0 0)
(0 0 0)
(0 0 0)
(0 0 0)
(0 0 0)
(0 2.06379e-16 -1.05091e-20)
(0 -4.81084e-06 -1.1534e-08)
(0 -0.00121102 -1.90901e-06)
(0 -0.000914711 -9.89524e-07)
(0 -0.000610401 -3.308e-05)
(0 -0.000591079 -1.31335e-05)
(0 -0.000625517 -4.17756e-06)
(0 -0.000639111 -5.0878e-07)
(0 -0.000645387 1.90359e-06)
(0 -0.000592075 2.72303e-06)
(0 -0.000593532 3.22029e-06)
(0 -0.000545121 3.42582e-06)
(0 -0.000648523 2.50503e-06)
(0 -0.000799271 1.06217e-06)
(0 -0.000603444 2.13817e-06)
(0 -0.000656449 3.58552e-06)
(0 -0.000514111 3.85402e-06)
(0 -0.000601439 4.66595e-06)
(0 -0.000555959 1.95167e-06)
(0 -0.000616826 4.03086e-06)
(0 0 0)
(0 0 0)
(0 0 0)
(0 0 0)
(0 0 0)
(0 0 0)
(0 0 0)
(0 0 0)
(0 0 0)
(0 0 0)
(0 0 0)
(0 0 0)
(0 0 0)
(0 0 0)
(0 0 0)
(0 0 0)
(0 0 0)
(0 0 0)
(0 0 0)
(0 0 0)
(0 0 0)
(0 0 0)
(0 0 0)
(0 0 0)
(0 0 0)
(0 0 0)
(0 0 0)
(0 0 0)
(0 0 0)
(0 0 0)
(0 0 0)
(0 0 0)
(0 0 0)
(0 0 0)
(0 0 0)
(0 0 0)
(0 0 0)
(0 0 0)
(0 0 0)
(0 0 0)
(0 0 0)
(0 0 0)
(0 0 0)
(0 0 0)
(0 0 0)
(0 0 0)
(0 0 0)
(0 0 0)
(0 0 0)
(0 0 0)
(0 0 0)
(0 0 0)
(0 0 0)
(0 0 0)
(0 0 0)
(0 0 0)
(0 0 0)
(0 0 0)
(0 0 0)
(0 0 0)
(0 0 0)
(0 0 0)
(0 0 0)
(0 0 0)
(0 0 0)
(0 0 0)
(0 0 0)
(0 0 0)
(0 0 0)
(0 0 0)
(0 0 0)
(0 0 0)
(0 0 0)
(0 0 0)
(0 0 0)
(0 0 0)
(0 0 0)
(0 0 0)
(0 0 0)
(0 1.17807e-15 0)
(0 -1.19678e-05 -5.16501e-17)
(0 -0.00122239 9.41206e-10)
(0 -0.000936922 7.32566e-08)
(0 -0.000711909 2.74325e-06)
(0 -0.000715799 -8.5184e-06)
(0 -0.000716588 -8.09732e-06)
(0 -0.000600654 -8.72535e-07)
(0 -0.000605439 8.04748e-07)
(0 -0.00084155 2.38202e-06)
(0 -0.000746866 4.81511e-06)
(0 -0.000738489 6.4059e-06)
(0 -0.000919229 7.55607e-06)
(0 -0.000717237 4.72787e-06)
(0 -0.000586236 2.86641e-06)
(0 -0.000694675 3.95628e-06)
(0 -0.000856637 6.10916e-06)
(0 -0.000629082 8.86377e-06)
(0 -0.000809946 1.06837e-05)
(0 -0.000493486 4.63542e-06)
(0 -0.000692078 7.44448e-06)
(0 0 0)
(0 0 0)
(0 0 0)
(0 0 0)
(0 0 0)
(0 0 0)
(0 0 0)
(0 0 0)
(0 0 0)
(0 0 0)
(0 0 0)
(0 0 0)
(0 0 0)
(0 0 0)
(0 0 0)
(0 0 0)
(0 0 0)
(0 0 0)
(0 0 0)
(0 0 0)
(0 0 0)
(0 0 0)
(0 0 0)
(0 0 0)
(0 0 0)
(0 0 0)
(0 0 0)
(0 0 0)
(0 0 0)
(0 0 0)
(0 0 0)
(0 0 0)
(0 0 0)
(0 0 0)
(0 0 0)
(0 0 0)
(0 0 0)
(0 0 0)
(0 0 0)
(0 0 0)
(0 0 0)
(0 0 0)
(0 0 0)
(0 0 0)
(0 0 0)
(0 0 0)
(0 0 0)
(0 0 0)
(0 0 0)
(0 0 0)
(0 0 0)
(0 0 0)
(0 0 0)
(0 0 0)
(0 0 0)
(0 0 0)
(0 0 0)
(0 0 0)
(0 0 0)
(0 0 0)
(0 0 0)
(0 0 0)
(0 0 0)
(0 0 0)
(0 0 0)
(0 0 0)
(0 0 0)
(0 0 0)
(0 0 0)
(0 0 0)
(0 0 0)
(0 0 0)
(0 0 0)
(0 0 0)
(0 0 0)
(0 0 0)
(0 0 0)
(0 0 0)
(0 1.56056e-85 0)
(0 3.86092e-30 -1.67558e-35)
(0 -1.26324e-11 -1.84434e-13)
(0 -0.00105976 -3.28837e-06)
(0 -0.00112739 8.99643e-09)
(0 -0.000764855 -2.67242e-05)
(0 -0.0006348 -2.7459e-05)
(0 -0.000590421 -8.75198e-06)
(0 -0.000749905 9.37076e-07)
(0 -0.000579026 2.88717e-06)
(0 -0.000563813 2.71729e-06)
(0 -0.000616205 5.03157e-06)
(0 -0.000709784 6.53993e-06)
(0 -0.000586564 5.10454e-06)
(0 -0.000608585 5.2241e-06)
(0 -0.000629631 5.20271e-06)
(0 -0.000544787 4.87148e-06)
(0 -0.000536525 5.04607e-06)
(0 -0.000781245 9.66844e-06)
(0 -0.000759285 6.645e-06)
(0 -0.000492692 7.19396e-06)
(0 -0.000653058 5.10094e-06)
(0 0 0)
(0 0 0)
(0 0 0)
(0 0 0)
(0 0 0)
(0 0 0)
(0 0 0)
(0 0 0)
(0 0 0)
(0 0 0)
(0 0 0)
(0 0 0)
(0 0 0)
(0 0 0)
(0 0 0)
(0 0 0)
(0 0 0)
(0 0 0)
(0 0 0)
(0 0 0)
(0 0 0)
(0 0 0)
(0 0 0)
(0 0 0)
(0 0 0)
(0 0 0)
(0 0 0)
(0 0 0)
(0 0 0)
(0 0 0)
(0 0 0)
(0 0 0)
(0 0 0)
(0 0 0)
(0 0 0)
(0 0 0)
(0 0 0)
(0 0 0)
(0 0 0)
(0 0 0)
(0 0 0)
(0 0 0)
(0 0 0)
(0 0 0)
(0 0 0)
(0 0 0)
(0 0 0)
(0 0 0)
(0 0 0)
(0 0 0)
(0 0 0)
(0 0 0)
(0 0 0)
(0 0 0)
(0 0 0)
(0 0 0)
(0 0 0)
(0 0 0)
(0 0 0)
(0 0 0)
(0 0 0)
(0 0 0)
(0 0 0)
(0 0 0)
(0 0 0)
(0 0 0)
(0 0 0)
(0 0 0)
(0 0 0)
(0 0 0)
(0 0 0)
(0 0 0)
(0 0 0)
(0 0 0)
(0 0 0)
(0 0 0)
(0 0 0)
(0 0 0)
(0 1.15397e-25 0)
(0 -1.99483e-10 -4.71335e-27)
(0 -0.00128857 2.37016e-12)
(0 -0.00106694 4.97694e-09)
(0 -0.000738636 4.99836e-08)
(0 -0.000577181 3.64818e-06)
(0 -0.000896217 -4.50771e-06)
(0 -0.000730204 -4.86677e-06)
(0 -0.000915588 -3.48367e-06)
(0 -0.000857058 -5.76905e-08)
(0 -0.000758751 3.18507e-06)
(0 -0.00088669 5.71714e-06)
(0 -0.000780184 5.97019e-06)
(0 -0.000815063 7.66006e-06)
(0 -0.000720506 7.02835e-06)
(0 -0.000564857 6.29088e-06)
(0 -0.000633447 9.04488e-06)
(0 -0.000685601 1.05945e-05)
(0 -0.000793501 8.0611e-06)
(0 -0.000650691 2.98447e-06)
(0 -0.000736484 7.05863e-06)
(0 -0.000620735 2.45018e-06)
(0 0 0)
(0 0 0)
(0 0 0)
(0 0 0)
(0 0 0)
(0 0 0)
(0 0 0)
(0 0 0)
(0 0 0)
(0 0 0)
(0 0 0)
(0 0 0)
(0 0 0)
(0 0 0)
(0 0 0)
(0 0 0)
(0 0 0)
(0 0 0)
(0 0 0)
(0 0 0)
(0 0 0)
(0 0 0)
(0 0 0)
(0 0 0)
(0 0 0)
(0 0 0)
(0 0 0)
(0 0 0)
(0 0 0)
(0 0 0)
(0 0 0)
(0 0 0)
(0 0 0)
(0 0 0)
(0 0 0)
(0 0 0)
(0 0 0)
(0 0 0)
(0 0 0)
(0 0 0)
(0 0 0)
(0 0 0)
(0 0 0)
(0 0 0)
(0 0 0)
(0 0 0)
(0 0 0)
(0 0 0)
(0 0 0)
(0 0 0)
(0 0 0)
(0 0 0)
(0 0 0)
(0 0 0)
(0 0 0)
(0 0 0)
(0 0 0)
(0 0 0)
(0 0 0)
(0 0 0)
(0 0 0)
(0 0 0)
(0 0 0)
(0 0 0)
(0 0 0)
(0 0 0)
(0 0 0)
(0 0 0)
(0 0 0)
(0 0 0)
(0 0 0)
(0 0 0)
(0 0 0)
(0 0 0)
(0 0 0)
(0 0 0)
(0 0 0)
(0 0 0)
(0 0 0)
(0 3.02145e-22 -4.71335e-27)
(0 -1.03234e-08 7.22876e-12)
(0 -0.00127204 3.39628e-06)
(0 -0.00103308 1.92622e-06)
(0 -0.000669716 3.33311e-05)
(0 -0.000640577 1.97498e-05)
(0 -0.000594181 3.31882e-06)
(0 -0.000646638 -6.77169e-07)
(0 -0.000580182 -3.37347e-07)
(0 -0.000693837 1.68032e-06)
(0 -0.00069212 3.66498e-06)
(0 -0.000657591 6.25483e-06)
(0 -0.000625809 7.45194e-06)
(0 -0.000594919 7.45223e-06)
(0 -0.000613461 9.42129e-06)
(0 -0.000775254 1.0981e-05)
(0 -0.000857278 1.27533e-05)
(0 -0.000740943 7.53694e-06)
(0 -0.00055989 2.88115e-06)
(0 -0.000654665 5.46456e-07)
(0 -0.000621216 -9.88507e-07)
(0 0 0)
(0 0 0)
(0 0 0)
(0 0 0)
(0 0 0)
(0 0 0)
(0 0 0)
(0 0 0)
(0 0 0)
(0 0 0)
(0 0 0)
(0 0 0)
(0 0 0)
(0 0 0)
(0 0 0)
(0 0 0)
(0 0 0)
(0 0 0)
(0 0 0)
(0 0 0)
(0 0 0)
(0 0 0)
(0 0 0)
(0 0 0)
(0 0 0)
(0 0 0)
(0 0 0)
(0 0 0)
(0 0 0)
(0 0 0)
(0 0 0)
(0 0 0)
(0 0 0)
(0 0 0)
(0 0 0)
(0 0 0)
(0 0 0)
(0 0 0)
(0 0 0)
(0 0 0)
(0 0 0)
(0 0 0)
(0 0 0)
(0 0 0)
(0 0 0)
(0 0 0)
(0 0 0)
(0 0 0)
(0 0 0)
(0 0 0)
(0 0 0)
(0 0 0)
(0 0 0)
(0 0 0)
(0 0 0)
(0 0 0)
(0 0 0)
(0 0 0)
(0 0 0)
(0 0 0)
(0 0 0)
(0 0 0)
(0 0 0)
(0 0 0)
(0 0 0)
(0 0 0)
(0 0 0)
(0 0 0)
(0 0 0)
(0 0 0)
(0 0 0)
(0 0 0)
(0 0 0)
(0 0 0)
(0 0 0)
(0 0 0)
(0 0 0)
(0 0 0)
(0 0 0)
(0 7.62226e-22 0)
(0 -1.80978e-08 -3.58534e-16)
(0 -0.00128997 -1.06741e-08)
(0 -0.00107003 -1.40647e-08)
(0 -0.000760425 -1.14501e-05)
(0 -0.000655431 -1.69626e-05)
(0 -0.000768035 -1.20622e-05)
(0 -0.000712622 -3.07173e-06)
(0 -0.000578501 3.25002e-06)
(0 -0.000562676 4.38982e-06)
(0 -0.00058915 6.05235e-06)
(0 -0.000746415 8.92938e-06)
(0 -0.000782866 1.16258e-05)
(0 -0.000601232 9.6653e-06)
(0 -0.000720837 1.08433e-05)
(0 -0.000534791 7.69098e-06)
(0 -0.000781989 9.43184e-06)
(0 -0.000764583 5.32398e-06)
(0 -0.000500177 5.02603e-06)
(0 -0.000484803 2.92204e-06)
(0 -0.000487098 4.26148e-06)
(0 0 0)
(0 0 0)
(0 0 0)
(0 0 0)
(0 0 0)
(0 0 0)
(0 0 0)
(0 0 0)
(0 0 0)
(0 0 0)
(0 0 0)
(0 0 0)
(0 0 0)
(0 0 0)
(0 0 0)
(0 0 0)
(0 0 0)
(0 0 0)
(0 0 0)
(0 0 0)
(0 0 0)
(0 0 0)
(0 0 0)
(0 0 0)
(0 0 0)
(0 0 0)
(0 0 0)
(0 0 0)
(0 0 0)
(0 0 0)
(0 0 0)
(0 0 0)
(0 0 0)
(0 0 0)
(0 0 0)
(0 0 0)
(0 0 0)
(0 0 0)
(0 0 0)
(0 0 0)
(0 0 0)
(0 0 0)
(0 0 0)
(0 0 0)
(0 0 0)
(0 0 0)
(0 0 0)
(0 0 0)
(0 0 0)
(0 0 0)
(0 0 0)
(0 0 0)
(0 0 0)
(0 0 0)
(0 0 0)
(0 0 0)
(0 0 0)
(0 0 0)
(0 0 0)
(0 0 0)
(0 0 0)
(0 0 0)
(0 0 0)
(0 0 0)
(0 0 0)
(0 0 0)
(0 0 0)
(0 0 0)
(0 0 0)
(0 0 0)
(0 0 0)
(0 0 0)
(0 0 0)
(0 0 0)
(0 0 0)
(0 0 0)
(0 0 0)
(0 0 0)
(0 0 0)
(0 8.25598e-13 0)
(0 -0.000310618 -4.26303e-14)
(0 -0.00116251 4.99333e-09)
(0 -0.000848507 2.28466e-07)
(0 -0.000682121 -5.93984e-06)
(0 -0.00063052 -1.68744e-05)
(0 -0.000668369 -1.35755e-05)
(0 -0.000678473 -5.01052e-06)
(0 -0.000832521 3.86332e-06)
(0 -0.000675002 7.65039e-06)
(0 -0.000740542 9.61635e-06)
(0 -0.000698978 7.48476e-06)
(0 -0.000917062 8.86646e-06)
(0 -0.00079871 1.00061e-05)
(0 -0.000584432 7.38963e-06)
(0 -0.000819579 1.05546e-05)
(0 -0.000856407 8.35561e-06)
(0 -0.000529399 3.83182e-06)
(0 -0.000682166 8.20729e-06)
(0 -0.000541249 8.29392e-06)
(0 -0.000697401 9.50254e-06)
(0 0 0)
(0 0 0)
(0 0 0)
(0 0 0)
(0 0 0)
(0 0 0)
(0 0 0)
(0 0 0)
(0 0 0)
(0 0 0)
(0 0 0)
(0 0 0)
(0 0 0)
(0 0 0)
(0 0 0)
(0 0 0)
(0 0 0)
(0 0 0)
(0 0 0)
(0 0 0)
(0 0 0)
(0 0 0)
(0 0 0)
(0 0 0)
(0 0 0)
(0 0 0)
(0 0 0)
(0 0 0)
(0 0 0)
(0 0 0)
(0 0 0)
(0 0 0)
(0 0 0)
(0 0 0)
(0 0 0)
(0 0 0)
(0 0 0)
(0 0 0)
(0 0 0)
(0 0 0)
(0 0 0)
(0 0 0)
(0 0 0)
(0 0 0)
(0 0 0)
(0 0 0)
(0 0 0)
(0 0 0)
(0 0 0)
(0 0 0)
(0 0 0)
(0 0 0)
(0 0 0)
(0 0 0)
(0 0 0)
(0 0 0)
(0 0 0)
(0 0 0)
(0 0 0)
(0 0 0)
(0 0 0)
(0 0 0)
(0 0 0)
(0 0 0)
(0 0 0)
(0 0 0)
(0 0 0)
(0 0 0)
(0 0 0)
(0 0 0)
(0 0 0)
(0 0 0)
(0 0 0)
(0 0 0)
(0 0 0)
(0 0 0)
(0 0 0)
(0 0 0)
(0 0 0)
(0 3.32939e-13 -2.77312e-31)
(0 -0.000277308 -4.93482e-12)
(0 -0.00114868 4.96894e-09)
(0 -0.000823673 2.83073e-07)
(0 -0.000588364 -1.00538e-05)
(0 -0.000755851 -1.67615e-05)
(0 -0.000607492 -8.308e-06)
(0 -0.000704003 -3.35594e-06)
(0 -0.000824678 1.50197e-06)
(0 -0.000926694 8.42186e-06)
(0 -0.000918741 1.04018e-05)
(0 -0.000722316 7.807e-06)
(0 -0.000594665 5.89772e-06)
(0 -0.000675847 7.87513e-06)
(0 -0.000738938 9.00087e-06)
(0 -0.000766141 5.64864e-06)
(0 -0.000847152 5.0231e-06)
(0 -0.000543986 7.34545e-06)
(0 -0.000553097 8.66904e-06)
(0 -0.000649369 1.09817e-05)
(0 -0.000511064 6.43217e-06)
(0 0 0)
(0 0 0)
(0 0 0)
(0 0 0)
(0 0 0)
(0 0 0)
(0 0 0)
(0 0 0)
(0 0 0)
(0 0 0)
(0 0 0)
(0 0 0)
(0 0 0)
(0 0 0)
(0 0 0)
(0 0 0)
(0 0 0)
(0 0 0)
(0 0 0)
(0 0 0)
(0 0 0)
(0 0 0)
(0 0 0)
(0 0 0)
(0 0 0)
(0 0 0)
(0 0 0)
(0 0 0)
(0 0 0)
(0 0 0)
(0 0 0)
(0 0 0)
(0 0 0)
(0 0 0)
(0 0 0)
(0 0 0)
(0 0 0)
(0 0 0)
(0 0 0)
(0 0 0)
(0 0 0)
(0 0 0)
(0 0 0)
(0 0 0)
(0 0 0)
(0 0 0)
(0 0 0)
(0 0 0)
(0 0 0)
(0 0 0)
(0 0 0)
(0 0 0)
(0 0 0)
(0 0 0)
(0 0 0)
(0 0 0)
(0 0 0)
(0 0 0)
(0 0 0)
(0 0 0)
(0 0 0)
(0 0 0)
(0 0 0)
(0 0 0)
(0 0 0)
(0 0 0)
(0 0 0)
(0 0 0)
(0 0 0)
(0 0 0)
(0 0 0)
(0 0 0)
(0 0 0)
(0 0 0)
(0 0 0)
(0 0 0)
(0 0 0)
(0 0 0)
(0 7.19738e-23 0)
(0 -5.24847e-09 -6.10503e-18)
(0 -0.00129176 -6.38415e-09)
(0 -0.00107481 -1.12171e-08)
(0 -0.000755823 -3.15333e-06)
(0 -0.000696608 -2.50699e-05)
(0 -0.00066973 -1.43178e-05)
(0 -0.000698931 -6.19262e-06)
(0 -0.000677766 6.51513e-07)
(0 -0.000681932 2.05349e-06)
(0 -0.000944723 3.06798e-06)
(0 -0.000936869 5.24139e-06)
(0 -0.000735458 6.07205e-06)
(0 -0.000691924 8.21191e-06)
(0 -0.000801713 8.65789e-06)
(0 -0.00078942 6.2006e-06)
(0 -0.000554407 4.4199e-06)
(0 -0.000593294 2.56087e-06)
(0 -0.000841133 7.66263e-06)
(0 -0.000811838 9.60538e-06)
(0 -0.000588237 7.7124e-06)
(0 -0.000534609 1.18557e-05)
(0 0 0)
(0 0 0)
(0 0 0)
(0 0 0)
(0 0 0)
(0 0 0)
(0 0 0)
(0 0 0)
(0 0 0)
(0 0 0)
(0 0 0)
(0 0 0)
(0 0 0)
(0 0 0)
(0 0 0)
(0 0 0)
(0 0 0)
(0 0 0)
(0 0 0)
(0 0 0)
(0 0 0)
(0 0 0)
(0 0 0)
(0 0 0)
(0 0 0)
(0 0 0)
(0 0 0)
(0 0 0)
(0 0 0)
(0 0 0)
(0 0 0)
(0 0 0)
(0 0 0)
(0 0 0)
(0 0 0)
(0 0 0)
(0 0 0)
(0 0 0)
(0 0 0)
(0 0 0)
(0 0 0)
(0 0 0)
(0 0 0)
(0 0 0)
(0 0 0)
(0 0 0)
(0 0 0)
(0 0 0)
(0 0 0)
(0 0 0)
(0 0 0)
(0 0 0)
(0 0 0)
(0 0 0)
(0 0 0)
(0 0 0)
(0 0 0)
(0 0 0)
(0 0 0)
(0 0 0)
(0 0 0)
(0 0 0)
(0 0 0)
(0 0 0)
(0 0 0)
(0 0 0)
(0 0 0)
(0 0 0)
(0 0 0)
(0 0 0)
(0 0 0)
(0 0 0)
(0 0 0)
(0 0 0)
(0 0 0)
(0 0 0)
(0 0 0)
(0 0 0)
(0 6.32313e-14 0)
(0 -0.000108357 -6.10503e-18)
(0 -0.00120101 -6.7851e-11)
(0 -0.000905459 -1.12214e-09)
(0 -0.000655113 -1.08965e-06)
(0 -0.000785616 -1.1551e-05)
(0 -0.000845304 -6.71093e-06)
(0 -0.000682827 -2.18851e-06)
(0 -0.00099045 2.25911e-06)
(0 -0.000873951 2.29468e-06)
(0 -0.000707527 3.3875e-07)
(0 -0.000774888 1.09768e-06)
(0 -0.000729124 2.2961e-06)
(0 -0.000952921 5.17043e-06)
(0 -0.00082841 3.59001e-06)
(0 -0.000631321 1.70693e-06)
(0 -0.000899881 5.16545e-06)
(0 -0.000602526 1.86304e-06)
(0 -0.000642857 1.17109e-06)
(0 -0.000655083 1.59823e-06)
(0 -0.000628071 3.49993e-06)
(0 -0.000697231 8.72187e-06)
)
;

boundaryField
{
    inlet
    {
        type            fixedValue;
        value           uniform (0 -0.0005 0);
    }
    outlet
    {
        type            fluxCorrectedVelocity;
        phi             phi.gas;
        rho             rho.gas;
        value           uniform (0 0 0);
    }
    walls
    {
        type            fixedValue;
        value           uniform (0 0 0);
    }
}


// ************************************************************************* //
