/*--------------------------------*- C++ -*----------------------------------*\
| =========                 |                                                 |
| \\      /  F ield         | foam-extend: Open Source CFD                    |
|  \\    /   O peration     | Version:     5.0                                |
|   \\  /    A nd           | Web:         http://www.foam-extend.org         |
|    \\/     M anipulation  |                                                 |
\*---------------------------------------------------------------------------*/
FoamFile
{
    version     2.0;
    format      ascii;
    class       volVectorField;
    location    "2000";
    object      U.oil;
}
// * * * * * * * * * * * * * * * * * * * * * * * * * * * * * * * * * * * * * //

dimensions      [0 1 -1 0 0 0 0];

internalField   nonuniform List<vector> 
1000
(
(0 -0.000585828 -6.88035e-06)
(0 -0.000647053 -4.26243e-06)
(0 -0.000465556 -1.92867e-06)
(0 -0.000535337 -1.49445e-06)
(0 -0.00044014 -8.6045e-07)
(0 -0.000593489 -8.29596e-07)
(0 -0.000629065 -6.35805e-07)
(0 -0.000669832 -4.92465e-07)
(0 -0.000557484 -2.99104e-07)
(0 -0.00050127 -1.96601e-07)
(0 -0.00050093 -1.43751e-07)
(0 -0.000625851 -1.3147e-07)
(0 -0.00052684 -8.10325e-08)
(0 -0.000555961 -6.26177e-08)
(0 -0.000555853 -4.58465e-08)
(0 -0.000454724 -2.74661e-08)
(0 -0.000416786 -1.8436e-08)
(0 -0.000454641 -1.47274e-08)
(0 -0.00066677 -1.58176e-08)
(0 -0.000434832 -7.55438e-09)
(0 -0.000588284 -7.48486e-09)
(0 -0.000416692 -3.88279e-09)
(0 -0.000526339 -3.59207e-09)
(0 -0.000555574 -2.77715e-09)
(0 -0.000666683 -2.44114e-09)
(0 -0.000526325 -1.41188e-09)
(0 -0.000434788 -8.54608e-10)
(0 -0.000555561 -8.00324e-10)
(0 -0.000454549 -4.80059e-10)
(0 -0.000434785 -3.36782e-10)
(0 -0.000476193 -2.70677e-10)
(0 -0.000500002 -2.08705e-10)
(0 -0.000454547 -1.39444e-10)
(0 -0.000454546 -1.02587e-10)
(0 -0.000526317 -8.74788e-11)
(0 -0.000416667 -5.10449e-11)
(0 -0.000416667 -3.76275e-11)
(0 -0.000434783 -2.88916e-11)
(0 -0.000625 -3.03794e-11)
(0 -0.000526316 -1.8436e-11)
(0 -0.000555556 -1.35488e-11)
(0 -0.000588236 -9.20401e-12)
(0 -0.000526316 -4.18628e-12)
(0 -0.000476191 -2.67792e-13)
(0 -0.0005 3.62181e-12)
(0 -0.000526316 8.53596e-12)
(0 -0.000476191 1.2966e-11)
(0 -0.000666667 2.75587e-11)
(0 -0.000625 3.74452e-11)
(0 -0.000454546 3.85236e-11)
(0 -0.000434783 5.14215e-11)
(0 -0.000555556 9.09585e-11)
(0 -0.000434783 9.80641e-11)
(0 -0.000500001 1.54882e-10)
(0 -0.000666668 2.83059e-10)
(0 -0.000555558 3.22901e-10)
(0 -0.000625003 4.96829e-10)
(0 -0.000434786 4.72394e-10)
(0 -0.000416671 6.18453e-10)
(0 -0.000416672 8.44505e-10)
(0 -0.000454554 1.25748e-09)
(0 -0.000476202 1.7973e-09)
(0 -0.000476206 2.45079e-09)
(0 -0.000454566 3.18794e-09)
(0 -0.000666708 6.36644e-09)
(0 -0.000416702 5.41225e-09)
(0 -0.000476245 8.40195e-09)
(0 -0.000500078 1.19623e-08)
(0 -0.000625133 2.02292e-08)
(0 -0.000666859 2.91078e-08)
(0 -0.000476377 2.79467e-08)
(0 -0.000667019 5.23677e-08)
(0 -0.000500356 5.23258e-08)
(0 -0.00045498 6.31089e-08)
(0 -0.000435338 7.99486e-08)
(0 -0.000417378 1.0201e-07)
(0 -0.000501142 1.66453e-07)
(0 -0.000436128 2.07237e-07)
(0 -0.000528592 3.9667e-07)
(0 -0.00047927 6.61716e-07)
(0 -0.000459532 1.41479e-06)
(0 -0.000538272 4.54463e-06)
(0 -0.00070263 1.50732e-05)
(0 -0.000485151 -1.62542e-06)
(0 -0.000507562 -1.5485e-05)
(0 -0.000452472 -9.72299e-06)
(0 -0.000378602 -5.86354e-06)
(0 -0.000322859 -3.98465e-06)
(0 -0.000282642 -2.45758e-06)
(0 -0.000226501 -1.81333e-06)
(0 -0.000200231 -1.63761e-06)
(0 -0.000160894 -1.33711e-06)
(0 -0.00016982 -2.18048e-06)
(0 -0.000188151 -3.118e-06)
(0 -0.000122856 -1.75384e-06)
(0 -0.000114252 -1.52981e-06)
(0 -7.10191e-05 -9.82981e-07)
(0 -6.31269e-05 -1.08383e-06)
(0 -3.80995e-05 -1.26403e-06)
(0 -1.85397e-05 -6.82678e-07)
(0 -0.000492597 -1.34514e-05)
(0 -0.000489116 -8.31989e-06)
(0 -0.000536969 -6.08209e-06)
(0 -0.000634297 -4.9845e-06)
(0 -0.000673928 -3.7636e-06)
(0 -0.000559983 -2.25291e-06)
(0 -0.000670555 -1.95828e-06)
(0 -0.000590747 -1.25754e-06)
(0 -0.000417969 -6.50012e-07)
(0 -0.000556827 -6.334e-07)
(0 -0.000455307 -3.79068e-07)
(0 -0.000500614 -3.05146e-07)
(0 -0.00050045 -2.2337e-07)
(0 -0.000588623 -1.92394e-07)
(0 -0.000555824 -1.33043e-07)
(0 -0.000454706 -7.97051e-08)
(0 -0.000588388 -7.55298e-08)
(0 -0.000555661 -5.22351e-08)
(0 -0.000526389 -3.62372e-08)
(0 -0.000416709 -2.10076e-08)
(0 -0.000434815 -1.60526e-08)
(0 -0.000555586 -1.50208e-08)
(0 -0.000526337 -1.04211e-08)
(0 -0.000666687 -9.66691e-09)
(0 -0.000500011 -5.30981e-09)
(0 -0.000588245 -4.57521e-09)
(0 -0.000476196 -2.71282e-09)
(0 -0.000476195 -1.9872e-09)
(0 -0.000434786 -1.32923e-09)
(0 -0.000476193 -1.0667e-09)
(0 -0.000416668 -6.83994e-10)
(0 -0.000526317 -6.33276e-10)
(0 -0.000625001 -5.51289e-10)
(0 -0.000476191 -3.07934e-10)
(0 -0.000526317 -2.49459e-10)
(0 -0.000434783 -1.5091e-10)
(0 -0.0005 -1.26801e-10)
(0 -0.0005 -9.21759e-11)
(0 -0.0005 -6.62821e-11)
(0 -0.000526316 -4.9039e-11)
(0 -0.000625 -3.89569e-11)
(0 -0.000555556 -2.05683e-11)
(0 -0.000416667 -6.15898e-12)
(0 -0.000476191 3.12343e-12)
(0 -0.000454546 1.32158e-11)
(0 -0.000588236 3.23253e-11)
(0 -0.000476191 4.12897e-11)
(0 -0.000625 7.96425e-11)
(0 -0.0005 9.05372e-11)
(0 -0.000526316 1.33091e-10)
(0 -0.0005 1.74912e-10)
(0 -0.000588236 2.83172e-10)
(0 -0.000588236 3.88484e-10)
(0 -0.000416667 3.76837e-10)
(0 -0.000454547 5.62357e-10)
(0 -0.000625002 1.05703e-09)
(0 -0.00066667 1.54062e-09)
(0 -0.000500003 1.5783e-09)
(0 -0.000434786 1.87416e-09)
(0 -0.000416672 2.452e-09)
(0 -0.00062501 5.01976e-09)
(0 -0.000555568 6.08768e-09)
(0 -0.000434796 6.49726e-09)
(0 -0.00047621 9.6991e-09)
(0 -0.000666704 1.84943e-08)
(0 -0.000416699 1.57285e-08)
(0 -0.000666736 3.42006e-08)
(0 -0.000434844 3.02632e-08)
(0 -0.000588349 5.54358e-08)
(0 -0.000454665 5.78395e-08)
(0 -0.000666904 1.14147e-07)
(0 -0.000588519 1.34948e-07)
(0 -0.000667101 2.03907e-07)
(0 -0.000588751 2.38623e-07)
(0 -0.000667448 3.57161e-07)
(0 -0.000417316 2.94718e-07)
(0 -0.000417522 3.92943e-07)
(0 -0.000455761 5.8939e-07)
(0 -0.000456096 8.64601e-07)
(0 -0.000478147 1.46753e-06)
(0 -0.000528259 2.89731e-06)
(0 -0.000663739 6.62357e-06)
(0 -0.000430778 6.17185e-06)
(0 -0.000560066 -5.2682e-06)
(0 -0.000497486 -2.90389e-05)
(0 -0.000394492 -1.9821e-05)
(0 -0.000265459 -9.77915e-06)
(0 -0.000227502 -8.19144e-06)
(0 -0.000286555 -9.29378e-06)
(0 -0.000229762 -6.52524e-06)
(0 -0.000205186 -5.62628e-06)
(0 -0.000234558 -6.96894e-06)
(0 -0.000164274 -5.67418e-06)
(0 -0.000116445 -4.68837e-06)
(0 -0.000119904 -5.00908e-06)
(0 -0.000129737 -5.36442e-06)
(0 -7.80119e-05 -2.76338e-06)
(0 -8.14512e-05 -3.57806e-06)
(0 -3.14559e-05 -2.18272e-06)
(0 -1.86883e-05 -1.95561e-06)
(0 -0.00044423 -1.43056e-05)
(0 -0.000599173 -1.36844e-05)
(0 -0.000676484 -1.10226e-05)
(0 -0.000532226 -6.24208e-06)
(0 -0.000593177 -5.04243e-06)
(0 -0.000457375 -2.83084e-06)
(0 -0.000478375 -2.1616e-06)
(0 -0.000436248 -1.44135e-06)
(0 -0.00058969 -1.42576e-06)
(0 -0.000667876 -1.1822e-06)
(0 -0.000476823 -6.18038e-07)
(0 -0.000625609 -5.93828e-07)
(0 -0.000500357 -3.47817e-07)
(0 -0.000500261 -2.54673e-07)
(0 -0.000588461 -2.19387e-07)
(0 -0.000666854 -1.82065e-07)
(0 -0.000416752 -8.33243e-08)
(0 -0.00041673 -6.10153e-08)
(0 -0.000454596 -4.87413e-08)
(0 -0.000526359 -4.13272e-08)
(0 -0.000625037 -3.5937e-08)
(0 -0.000434802 -1.83065e-08)
(0 -0.000526333 -1.62276e-08)
(0 -0.000500012 -1.12889e-08)
(0 -0.000454554 -7.51506e-09)
(0 -0.000625008 -7.56676e-09)
(0 -0.000526321 -4.66606e-09)
(0 -0.000476194 -3.0914e-09)
(0 -0.000526319 -2.50198e-09)
(0 -0.000434784 -1.51341e-09)
(0 -0.000625002 -1.59286e-09)
(0 -0.000476192 -8.88427e-10)
(0 -0.000454546 -6.20628e-10)
(0 -0.000500001 -4.99325e-10)
(0 -0.000526316 -3.84008e-10)
(0 -0.000625001 -3.32465e-10)
(0 -0.0005 -1.93147e-10)
(0 -0.000625 -1.74009e-10)
(0 -0.000588236 -1.16325e-10)
(0 -0.000666667 -9.09467e-11)
(0 -0.000625 -5.52632e-11)
(0 -0.000454546 -2.2303e-11)
(0 -0.000526316 -7.63888e-12)
(0 -0.000625 1.16305e-11)
(0 -0.0005 2.67663e-11)
(0 -0.0005 4.68319e-11)
(0 -0.000434783 6.21383e-11)
(0 -0.0005 1.03052e-10)
(0 -0.000625 1.8087e-10)
(0 -0.000416667 1.67051e-10)
(0 -0.000666667 3.67733e-10)
(0 -0.000625 4.72602e-10)
(0 -0.000454546 4.70285e-10)
(0 -0.000454546 6.42835e-10)
(0 -0.000500001 9.66066e-10)
(0 -0.000500001 1.31948e-09)
(0 -0.000500002 1.80189e-09)
(0 -0.000555558 2.73378e-09)
(0 -0.000526319 3.536e-09)
(0 -0.00045455 4.16885e-09)
(0 -0.000625008 7.82375e-09)
(0 -0.000476199 8.1341e-09)
(0 -0.000555569 1.29453e-08)
(0 -0.000555574 1.76514e-08)
(0 -0.00055558 2.40546e-08)
(0 -0.000416692 2.45664e-08)
(0 -0.000454583 3.6456e-08)
(0 -0.000555619 6.05294e-08)
(0 -0.000625097 9.23385e-08)
(0 -0.00058836 1.17566e-07)
(0 -0.000454677 1.22514e-07)
(0 -0.000476378 1.72387e-07)
(0 -0.000476446 2.30343e-07)
(0 -0.000416969 2.67582e-07)
(0 -0.00052683 4.45318e-07)
(0 -0.000556278 6.14259e-07)
(0 -0.000527208 7.55456e-07)
(0 -0.000626334 1.1655e-06)
(0 -0.0004774 1.17923e-06)
(0 -0.000668577 2.35377e-06)
(0 -0.000502058 2.94503e-06)
(0 -0.000634124 7.48512e-06)
(0 -0.000436648 2.60035e-06)
(0 -0.000468318 -1.38696e-05)
(0 -0.000577514 -1.8171e-05)
(0 -0.000398564 -1.24934e-05)
(0 -0.00042245 -1.02991e-05)
(0 -0.000266702 -6.22572e-06)
(0 -0.000219978 -5.60168e-06)
(0 -0.000211392 -5.16084e-06)
(0 -0.000219707 -5.60235e-06)
(0 -0.000160482 -4.45875e-06)
(0 -0.000147121 -4.47421e-06)
(0 -0.000133997 -4.47518e-06)
(0 -9.85676e-05 -3.46375e-06)
(0 -7.9772e-05 -3.08597e-06)
(0 -9.78715e-05 -3.76453e-06)
(0 -7.74019e-05 -3.73872e-06)
(0 -3.22661e-05 -1.67448e-06)
(0 -1.83806e-05 -2.10229e-06)
(0 -0.000481972 -1.64394e-05)
(0 -0.000531987 -1.37607e-05)
(0 -0.000593434 -1.14447e-05)
(0 -0.000437789 -6.24291e-06)
(0 -0.000456936 -4.79786e-06)
(0 -0.000627461 -4.8404e-06)
(0 -0.000436052 -2.46828e-06)
(0 -0.000527449 -2.18917e-06)
(0 -0.000527149 -1.60355e-06)
(0 -0.000556202 -1.23967e-06)
(0 -0.000667235 -1.08943e-06)
(0 -0.00045483 -5.43953e-07)
(0 -0.000476409 -4.173e-07)
(0 -0.000416807 -2.67383e-07)
(0 -0.000500123 -2.34958e-07)
(0 -0.000555656 -1.9117e-07)
(0 -0.000666755 -1.67986e-07)
(0 -0.000666732 -1.23011e-07)
(0 -0.000454578 -6.14162e-08)
(0 -0.000526343 -5.20741e-08)
(0 -0.000625024 -4.52819e-08)
(0 -0.000500014 -2.65266e-08)
(0 -0.000588248 -2.28523e-08)
(0 -0.000454553 -1.29306e-08)
(0 -0.000526322 -1.09635e-08)
(0 -0.00055556 -8.47397e-09)
(0 -0.000476194 -5.31848e-09)
(0 -0.000625003 -5.11118e-09)
(0 -0.000476192 -2.85125e-09)
(0 -0.000416668 -1.8265e-09)
(0 -0.000454547 -1.45856e-09)
(0 -0.000416667 -9.78468e-10)
(0 -0.000666668 -1.14524e-09)
(0 -0.000416667 -5.2322e-10)
(0 -0.000625001 -5.72939e-10)
(0 -0.000555556 -3.70893e-10)
(0 -0.000416667 -2.01695e-10)
(0 -0.0005 -1.74064e-10)
(0 -0.000416667 -1.02703e-10)
(0 -0.000625 -1.05757e-10)
(0 -0.000434783 -4.72799e-11)
(0 -0.000416667 -2.46565e-11)
(0 -0.000526316 -8.24543e-12)
(0 -0.000555556 1.44625e-11)
(0 -0.0005 3.49959e-11)
(0 -0.000666667 8.03358e-11)
(0 -0.000434783 7.93487e-11)
(0 -0.0005 1.31023e-10)
(0 -0.000555556 2.0384e-10)
(0 -0.000625 3.17099e-10)
(0 -0.000588236 4.10075e-10)
(0 -0.000526316 5.02525e-10)
(0 -0.000588236 7.67998e-10)
(0 -0.000526316 9.38881e-10)
(0 -0.000625001 1.52279e-09)
(0 -0.000434783 1.44662e-09)
(0 -0.000454546 2.06516e-09)
(0 -0.000526317 3.26512e-09)
(0 -0.000555558 4.70586e-09)
(0 -0.000625004 7.2281e-09)
(0 -0.000476194 7.51823e-09)
(0 -0.000416671 8.97951e-09)
(0 -0.000454552 1.33685e-08)
(0 -0.000434792 1.74459e-08)
(0 -0.000588252 3.21903e-08)
(0 -0.000666693 4.97288e-08)
(0 -0.000500027 5.08029e-08)
(0 -0.000625047 8.64179e-08)
(0 -0.000434827 8.17031e-08)
(0 -0.000476258 1.21401e-07)
(0 -0.000555664 1.91686e-07)
(0 -0.000416779 1.93917e-07)
(0 -0.000588454 3.67543e-07)
(0 -0.000416881 3.47215e-07)
(0 -0.000476528 5.24202e-07)
(0 -0.000556094 7.96601e-07)
(0 -0.000476807 8.70449e-07)
(0 -0.000556462 1.25044e-06)
(0 -0.000455339 1.18541e-06)
(0 -0.000555942 1.4857e-06)
(0 -0.000473661 9.48017e-07)
(0 -0.000460705 -2.81964e-08)
(0 -0.000402931 -1.1083e-06)
(0 -0.00035133 -9.75515e-06)
(0 -0.000505917 -2.38127e-05)
(0 -0.000335883 -1.5336e-05)
(0 -0.000374836 -1.54047e-05)
(0 -0.000316212 -1.07604e-05)
(0 -0.00025202 -7.2793e-06)
(0 -0.000270235 -7.58558e-06)
(0 -0.000216281 -6.22636e-06)
(0 -0.00020586 -5.79061e-06)
(0 -0.000163312 -4.87754e-06)
(0 -0.000110352 -3.43123e-06)
(0 -0.000106065 -3.19679e-06)
(0 -9.71914e-05 -3.25138e-06)
(0 -9.4399e-05 -4.38249e-06)
(0 -5.93838e-05 -3.71172e-06)
(0 -4.68908e-05 -2.94416e-06)
(0 -1.82623e-05 -2.13503e-06)
(0 -0.000669278 -2.33903e-05)
(0 -0.000418136 -1.13912e-05)
(0 -0.000589964 -1.22271e-05)
(0 -0.000435795 -6.76675e-06)
(0 -0.000417411 -4.81072e-06)
(0 -0.000435368 -3.70364e-06)
(0 -0.000526843 -3.29724e-06)
(0 -0.000435105 -1.9995e-06)
(0 -0.00066703 -2.24823e-06)
(0 -0.000454728 -1.12339e-06)
(0 -0.000588409 -1.06505e-06)
(0 -0.000588362 -7.80109e-07)
(0 -0.000416733 -4.04694e-07)
(0 -0.000416715 -2.9637e-07)
(0 -0.000476231 -2.48037e-07)
(0 -0.000454574 -1.73379e-07)
(0 -0.00052634 -1.47008e-07)
(0 -0.000666689 -1.36357e-07)
(0 -0.000625016 -9.36092e-08)
(0 -0.000588246 -6.45147e-08)
(0 -0.000416672 -3.34629e-08)
(0 -0.000416671 -2.45035e-08)
(0 -0.000500004 -2.15314e-08)
(0 -0.000454548 -1.4333e-08)
(0 -0.000416669 -9.62054e-09)
(0 -0.000500002 -8.45324e-09)
(0 -0.000434784 -5.38214e-09)
(0 -0.000416668 -3.77642e-09)
(0 -0.000625001 -4.14715e-09)
(0 -0.000434783 -2.11188e-09)
(0 -0.000500001 -1.77753e-09)
(0 -0.000454546 -1.18234e-09)
(0 -0.000454546 -8.64657e-10)
(0 -0.000625001 -8.68717e-10)
(0 -0.000588236 -5.9654e-10)
(0 -0.000476191 -3.51419e-10)
(0 -0.000476191 -2.5453e-10)
(0 -0.000454546 -1.74462e-10)
(0 -0.000476191 -1.29117e-10)
(0 -0.000416667 -7.72863e-11)
(0 -0.000666667 -7.89772e-11)
(0 -0.0005 -3.17663e-11)
(0 -0.0005 -7.66069e-12)
(0 -0.0005 1.54383e-11)
(0 -0.000476191 3.78923e-11)
(0 -0.000625 8.47049e-11)
(0 -0.000526316 1.07478e-10)
(0 -0.000434783 1.271e-10)
(0 -0.000454546 1.8569e-10)
(0 -0.000476191 2.6864e-10)
(0 -0.0005 3.87222e-10)
(0 -0.000625 6.62513e-10)
(0 -0.000434783 6.29935e-10)
(0 -0.000666667 1.31936e-09)
(0 -0.000666667 1.80169e-09)
(0 -0.000476191 1.75726e-09)
(0 -0.000476191 2.3995e-09)
(0 -0.000526316 3.62146e-09)
(0 -0.000588236 5.52707e-09)
(0 -0.000500001 6.41543e-09)
(0 -0.000555557 9.73397e-09)
(0 -0.000555558 1.32917e-08)
(0 -0.000434785 1.42033e-08)
(0 -0.000666672 2.97332e-08)
(0 -0.000500005 3.04407e-08)
(0 -0.000454552 3.77678e-08)
(0 -0.00050001 5.66821e-08)
(0 -0.000625017 9.66286e-08)
(0 -0.000500019 1.05362e-07)
(0 -0.00041669 1.19567e-07)
(0 -0.000454581 1.77398e-07)
(0 -0.000476245 2.52258e-07)
(0 -0.000625105 4.48042e-07)
(0 -0.000625156 6.03393e-07)
(0 -0.000476369 6.14291e-07)
(0 -0.000667048 1.13408e-06)
(0 -0.000667252 1.46117e-06)
(0 -0.000417231 1.12607e-06)
(0 -0.000626322 1.89385e-06)
(0 -0.000418118 1.06984e-06)
(0 -0.000419526 -2.20593e-07)
(0 -0.000509479 -5.92844e-06)
(0 -0.000578475 -1.19476e-05)
(0 -0.000417617 -1.51243e-06)
(0 -0.000525819 -9.16091e-06)
(0 -0.00036037 -9.70604e-06)
(0 -0.000317544 -1.08743e-05)
(0 -0.000237214 -8.51877e-06)
(0 -0.000250496 -8.45294e-06)
(0 -0.000223681 -7.08149e-06)
(0 -0.000190136 -5.41089e-06)
(0 -0.000160837 -4.54263e-06)
(0 -0.000134178 -4.12818e-06)
(0 -0.000120366 -3.69069e-06)
(0 -0.000133998 -4.91419e-06)
(0 -0.000130517 -5.01553e-06)
(0 -9.53562e-05 -4.70494e-06)
(0 -5.41921e-05 -3.66816e-06)
(0 -4.27853e-05 -3.90446e-06)
(0 -1.85104e-05 -2.73355e-06)
(0 -0.000498042 -1.75427e-05)
(0 -0.000452943 -1.24268e-05)
(0 -0.000498532 -1.03931e-05)
(0 -0.000525091 -8.19133e-06)
(0 -0.000587185 -6.79161e-06)
(0 -0.000587445 -5.01081e-06)
(0 -0.000475715 -2.98322e-06)
(0 -0.000416359 -1.91618e-06)
(0 -0.000555254 -1.87352e-06)
(0 -0.000624751 -1.54465e-06)
(0 -0.000454413 -8.22996e-07)
(0 -0.000499893 -6.63092e-07)
(0 -0.000555469 -5.39592e-07)
(0 -0.000588168 -4.18404e-07)
(0 -0.000588186 -3.06398e-07)
(0 -0.000624962 -2.38395e-07)
(0 -0.000555531 -1.55174e-07)
(0 -0.00062498 -1.27834e-07)
(0 -0.000624985 -9.36083e-08)
(0 -0.000526307 -5.77229e-08)
(0 -0.000434777 -3.49171e-08)
(0 -0.000624995 -3.67542e-08)
(0 -0.000476188 -2.05052e-08)
(0 -0.000666664 -2.10205e-08)
(0 -0.000454544 -1.04943e-08)
(0 -0.000666665 -1.12697e-08)
(0 -0.000499999 -6.18848e-09)
(0 -0.000588235 -5.33023e-09)
(0 -0.000416667 -2.7639e-09)
(0 -0.000625 -3.03451e-09)
(0 -0.000454545 -1.61496e-09)
(0 -0.000526316 -1.36788e-09)
(0 -0.000476191 -9.04777e-10)
(0 -0.000434783 -6.03351e-10)
(0 -0.000666667 -6.74569e-10)
(0 -0.000555556 -4.0872e-10)
(0 -0.000555556 -2.95676e-10)
(0 -0.000454546 -1.73413e-10)
(0 -0.000434783 -1.16884e-10)
(0 -0.000666667 -1.22116e-10)
(0 -0.0005 -5.80791e-11)
(0 -0.000555556 -3.402e-11)
(0 -0.000625 -8.15114e-12)
(0 -0.000454546 1.50603e-11)
(0 -0.000526316 4.30523e-11)
(0 -0.0005 6.8858e-11)
(0 -0.000666667 1.37568e-10)
(0 -0.000666667 1.96282e-10)
(0 -0.000666667 2.73702e-10)
(0 -0.000666667 3.77412e-10)
(0 -0.000555556 4.31311e-10)
(0 -0.000625 6.63677e-10)
(0 -0.000454545 6.59403e-10)
(0 -0.00047619 9.43285e-10)
(0 -0.000526316 1.42343e-09)
(0 -0.000625 2.30785e-09)
(0 -0.000555555 2.80109e-09)
(0 -0.000526315 3.62377e-09)
(0 -0.000666666 6.26872e-09)
(0 -0.000434782 5.58388e-09)
(0 -0.000624998 1.09641e-08)
(0 -0.000454544 1.08926e-08)
(0 -0.000526313 1.72305e-08)
(0 -0.000416664 1.8637e-08)
(0 -0.000526311 3.21675e-08)
(0 -0.00045454 3.79655e-08)
(0 -0.000434775 4.96362e-08)
(0 -0.000666651 1.04049e-07)
(0 -0.000416654 8.89254e-08)
(0 -0.000454528 1.32689e-07)
(0 -0.00062497 2.49607e-07)
(0 -0.000434757 2.37582e-07)
(0 -0.000434755 3.24995e-07)
(0 -0.000526285 5.37649e-07)
(0 -0.000526302 7.32988e-07)
(0 -0.000476222 8.9944e-07)
(0 -0.000500146 1.2677e-06)
(0 -0.000526734 1.75663e-06)
(0 -0.000527306 2.23296e-06)
(0 -0.000436633 2.21547e-06)
(0 -0.000439007 2.51463e-06)
(0 -0.000487332 3.62416e-06)
(0 -0.000550105 3.32385e-06)
(0 -0.00060463 -2.50454e-05)
(0 -0.000529844 -2.41105e-05)
(0 -0.000514198 -1.88622e-05)
(0 -0.000390519 -1.17218e-05)
(0 -0.000261083 -5.99903e-06)
(0 -0.00021648 -5.0196e-06)
(0 -0.000199033 -4.49618e-06)
(0 -0.000229448 -5.20655e-06)
(0 -0.000220566 -4.68124e-06)
(0 -0.000150663 -3.40012e-06)
(0 -0.000162659 -4.33558e-06)
(0 -0.000103605 -3.03055e-06)
(0 -0.000133917 -4.68401e-06)
(0 -0.000114048 -4.98943e-06)
(0 -5.78323e-05 -2.51166e-06)
(0 -3.75244e-05 -2.24494e-06)
(0 -1.67933e-05 -1.38535e-06)
(0 -0.000548812 -1.91793e-05)
(0 -0.000659485 -1.74302e-05)
(0 -0.000619477 -1.216e-05)
(0 -0.000451404 -6.52668e-06)
(0 -0.000523549 -5.55542e-06)
(0 -0.000474317 -3.68792e-06)
(0 -0.000433514 -2.46828e-06)
(0 -0.000433847 -1.80845e-06)
(0 -0.000665612 -2.03116e-06)
(0 -0.000525705 -1.17442e-06)
(0 -0.000587735 -9.6126e-07)
(0 -0.000416407 -4.98622e-07)
(0 -0.000475973 -4.17298e-07)
(0 -0.000454394 -2.91689e-07)
(0 -0.000434676 -2.0431e-07)
(0 -0.000434705 -1.4961e-07)
(0 -0.000555483 -1.39986e-07)
(0 -0.000416627 -7.68802e-08)
(0 -0.000588194 -7.94772e-08)
(0 -0.000454522 -4.4971e-08)
(0 -0.000588214 -4.26154e-08)
(0 -0.000499987 -2.65241e-08)
(0 -0.000526306 -2.0444e-08)
(0 -0.000499993 -1.4221e-08)
(0 -0.000588229 -1.22501e-08)
(0 -0.000666662 -1.01649e-08)
(0 -0.000499997 -5.58145e-09)
(0 -0.000555554 -4.5399e-09)
(0 -0.000666665 -3.9876e-09)
(0 -0.000499999 -2.18863e-09)
(0 -0.000454545 -1.45562e-09)
(0 -0.000625 -1.4636e-09)
(0 -0.0005 -8.55598e-10)
(0 -0.000555556 -6.93879e-10)
(0 -0.000526316 -4.78889e-10)
(0 -0.000434783 -2.87277e-10)
(0 -0.000416667 -1.98814e-10)
(0 -0.000454546 -1.55084e-10)
(0 -0.000666667 -1.59686e-10)
(0 -0.000526316 -8.53958e-11)
(0 -0.000666667 -6.78663e-11)
(0 -0.000555556 -2.90357e-11)
(0 -0.000476191 -4.19344e-12)
(0 -0.000416667 1.36757e-11)
(0 -0.000588235 4.51114e-11)
(0 -0.000454545 5.77673e-11)
(0 -0.0005 9.44759e-11)
(0 -0.000416667 1.11808e-10)
(0 -0.0005 1.86516e-10)
(0 -0.000434783 2.2317e-10)
(0 -0.000625 4.39297e-10)
(0 -0.000666666 6.40253e-10)
(0 -0.000666666 8.74049e-10)
(0 -0.000434782 7.77991e-10)
(0 -0.000624999 1.52641e-09)
(0 -0.00047619 1.58755e-09)
(0 -0.000555554 2.52876e-09)
(0 -0.000416665 2.58989e-09)
(0 -0.000499998 4.24474e-09)
(0 -0.000526313 6.10366e-09)
(0 -0.000666661 1.05631e-08)
(0 -0.000555549 1.2029e-08)
(0 -0.000526308 1.55765e-08)
(0 -0.000454536 1.83926e-08)
(0 -0.000666648 3.68958e-08)
(0 -0.000555534 4.20733e-08)
(0 -0.000624967 6.48112e-08)
(0 -0.000499964 7.10563e-08)
(0 -0.000555502 1.08322e-07)
(0 -0.000499935 1.33959e-07)
(0 -0.000434706 1.60377e-07)
(0 -0.000666511 3.39442e-07)
(0 -0.000555385 3.9174e-07)
(0 -0.000476002 4.66929e-07)
(0 -0.000416462 5.70984e-07)
(0 -0.000499715 9.63057e-07)
(0 -0.000555239 1.51299e-06)
(0 -0.00041652 1.61241e-06)
(0 -0.000476361 2.62247e-06)
(0 -0.000556634 4.32694e-06)
(0 -0.000627611 6.74304e-06)
(0 -0.000589354 8.34455e-06)
(0 -0.000439584 2.24895e-06)
(0 -0.000553404 -3.48391e-05)
(0 -0.000398808 -2.83416e-05)
(0 -0.000335677 -1.92806e-05)
(0 -0.000288053 -1.15444e-05)
(0 -0.000317703 -7.87772e-06)
(0 -0.000229246 -4.39748e-06)
(0 -0.000227498 -4.59568e-06)
(0 -0.000193555 -5.00062e-06)
(0 -0.000233827 -6.62189e-06)
(0 -0.000185034 -4.79958e-06)
(0 -0.000117738 -3.42793e-06)
(0 -0.000146782 -4.56614e-06)
(0 -0.000135874 -5.26664e-06)
(0 -6.70247e-05 -3.32556e-06)
(0 -6.71004e-05 -3.21366e-06)
(0 -3.43399e-05 -1.9671e-06)
(0 -1.93888e-05 -2.15144e-06)
(0 -0.00051488 -1.73173e-05)
(0 -0.000654273 -1.55089e-05)
(0 -0.000518567 -8.70201e-06)
(0 -0.000581631 -6.97645e-06)
(0 -0.000472191 -4.08196e-06)
(0 -0.000523041 -3.27781e-06)
(0 -0.000622135 -2.83709e-06)
(0 -0.000415263 -1.38129e-06)
(0 -0.000433708 -1.05382e-06)
(0 -0.000453722 -8.06044e-07)
(0 -0.000434206 -5.64293e-07)
(0 -0.000555016 -5.27845e-07)
(0 -0.00055516 -3.86461e-07)
(0 -0.000454309 -2.31518e-07)
(0 -0.000434617 -1.62153e-07)
(0 -0.000476058 -1.30044e-07)
(0 -0.000555442 -1.11095e-07)
(0 -0.000526237 -7.70682e-08)
(0 -0.000624932 -6.70145e-08)
(0 -0.00062495 -4.90712e-08)
(0 -0.000476163 -2.73766e-08)
(0 -0.00047617 -2.00459e-08)
(0 -0.000416654 -1.28431e-08)
(0 -0.000416657 -9.40356e-09)
(0 -0.000666656 -1.10157e-08)
(0 -0.000666659 -8.06466e-09)
(0 -0.000666661 -5.90361e-09)
(0 -0.000588232 -3.81269e-09)
(0 -0.000499998 -2.37158e-09)
(0 -0.000555554 -1.92779e-09)
(0 -0.000555554 -1.40974e-09)
(0 -0.00047619 -8.83087e-10)
(0 -0.000454545 -6.15457e-10)
(0 -0.000625 -6.1696e-10)
(0 -0.000666667 -4.78656e-10)
(0 -0.000588235 -3.0601e-10)
(0 -0.000434783 -1.62823e-10)
(0 -0.000434783 -1.15897e-10)
(0 -0.000434783 -8.08151e-11)
(0 -0.000588235 -7.32595e-11)
(0 -0.0005 -3.82845e-11)
(0 -0.000625 -2.3294e-11)
(0 -0.000416667 -1.1689e-12)
(0 -0.000555556 1.67755e-11)
(0 -0.000434783 2.82446e-11)
(0 -0.000416667 4.37081e-11)
(0 -0.000416667 6.41341e-11)
(0 -0.000588235 1.27552e-10)
(0 -0.000416667 1.24926e-10)
(0 -0.000666666 2.74017e-10)
(0 -0.00047619 2.67316e-10)
(0 -0.000555555 4.25336e-10)
(0 -0.000434782 4.53832e-10)
(0 -0.000526315 7.49122e-10)
(0 -0.000555554 1.07859e-09)
(0 -0.000499999 1.32458e-09)
(0 -0.000416665 1.50669e-09)
(0 -0.000666663 3.29158e-09)
(0 -0.000666662 4.49558e-09)
(0 -0.000476186 4.38686e-09)
(0 -0.000499993 6.29444e-09)
(0 -0.000588225 1.01224e-08)
(0 -0.000416657 9.80447e-09)
(0 -0.000624979 2.01195e-08)
(0 -0.000416648 1.83606e-08)
(0 -0.000555521 3.35377e-08)
(0 -0.000666611 5.51935e-08)
(0 -0.000499943 5.68532e-08)
(0 -0.000454475 7.11256e-08)
(0 -0.000526204 1.13639e-07)
(0 -0.000499855 1.49515e-07)
(0 -0.000526108 2.19065e-07)
(0 -0.000475935 2.77777e-07)
(0 -0.000416365 3.43831e-07)
(0 -0.000624392 7.38826e-07)
(0 -0.000434223 7.48657e-07)
(0 -0.000665566 1.70817e-06)
(0 -0.000587065 2.30059e-06)
(0 -0.000665308 4.08523e-06)
(0 -0.000587631 5.74257e-06)
(0 -0.000417983 6.34955e-06)
(0 -0.000676498 1.28911e-05)
(0 -0.000417873 -6.25358e-06)
(0 -0.000409023 -2.53774e-05)
(0 -0.00049498 -2.85915e-05)
(0 -0.000302772 -1.41245e-05)
(0 -0.000298593 -1.09744e-05)
(0 -0.000314579 -9.45258e-06)
(0 -0.000325494 -7.42659e-06)
(0 -0.00029839 -6.66856e-06)
(0 -0.00021264 -5.2742e-06)
(0 -0.000155007 -4.29216e-06)
(0 -0.000157435 -4.36636e-06)
(0 -0.000154243 -4.56169e-06)
(0 -0.000142481 -5.43579e-06)
(0 -0.00014043 -5.69255e-06)
(0 -7.36111e-05 -2.55878e-06)
(0 -5.70363e-05 -2.3371e-06)
(0 -4.74894e-05 -2.49906e-06)
(0 -1.72865e-05 -1.62411e-06)
(0 -0.000536416 -1.56932e-05)
(0 -0.000486429 -8.73589e-06)
(0 -0.000466553 -5.50284e-06)
(0 -0.000656751 -5.3168e-06)
(0 -0.000449595 -2.56609e-06)
(0 -0.000450924 -1.84329e-06)
(0 -0.000584806 -1.72789e-06)
(0 -0.00052407 -1.12516e-06)
(0 -0.000586398 -9.1766e-07)
(0 -0.000665142 -7.60076e-07)
(0 -0.000434055 -3.62583e-07)
(0 -0.000554875 -3.39047e-07)
(0 -0.000587708 -2.62783e-07)
(0 -0.000555191 -1.817e-07)
(0 -0.000555289 -1.33037e-07)
(0 -0.000588028 -1.03141e-07)
(0 -0.000499871 -6.41947e-08)
(0 -0.000416588 -3.91713e-08)
(0 -0.000499931 -3.44191e-08)
(0 -0.0004545 -2.29114e-08)
(0 -0.000666618 -2.46048e-08)
(0 -0.000499973 -1.35116e-08)
(0 -0.000526295 -1.04133e-08)
(0 -0.000454533 -6.58411e-09)
(0 -0.000454536 -4.8199e-09)
(0 -0.000555547 -4.31197e-09)
(0 -0.000588229 -3.34127e-09)
(0 -0.000526312 -2.18732e-09)
(0 -0.000416664 -1.26652e-09)
(0 -0.000416665 -9.25873e-10)
(0 -0.000588234 -9.54877e-10)
(0 -0.000666665 -7.89756e-10)
(0 -0.000588235 -5.07772e-10)
(0 -0.000588235 -3.69166e-10)
(0 -0.000666666 -3.03136e-10)
(0 -0.000555555 -1.82038e-10)
(0 -0.000454545 -1.06391e-10)
(0 -0.000555556 -9.15154e-11)
(0 -0.000416667 -4.7041e-11)
(0 -0.0005 -3.67544e-11)
(0 -0.000416667 -1.77965e-11)
(0 -0.000555556 -9.72123e-12)
(0 -0.0005 2.29793e-12)
(0 -0.000555556 1.4296e-11)
(0 -0.000625 2.99904e-11)
(0 -0.0005 3.67682e-11)
(0 -0.000588235 6.17062e-11)
(0 -0.000434783 6.31149e-11)
(0 -0.000666666 1.32195e-10)
(0 -0.000454545 1.22509e-10)
(0 -0.000666666 2.43906e-10)
(0 -0.000526315 2.61474e-10)
(0 -0.000499999 3.37617e-10)
(0 -0.000416666 3.82804e-10)
(0 -0.000666665 8.34173e-10)
(0 -0.000555554 9.4754e-10)
(0 -0.000416665 9.69344e-10)
(0 -0.000666662 2.1167e-09)
(0 -0.000454541 1.97056e-09)
(0 -0.000416662 2.4674e-09)
(0 -0.000454538 3.67824e-09)
(0 -0.000555543 6.1459e-09)
(0 -0.0005263 7.96365e-09)
(0 -0.000526294 1.08989e-08)
(0 -0.000499972 1.41814e-08)
(0 -0.00058819 2.28753e-08)
(0 -0.000624934 3.33713e-08)
(0 -0.000434719 3.19357e-08)
(0 -0.000526211 5.33215e-08)
(0 -0.000454421 6.37474e-08)
(0 -0.000499812 9.75596e-08)
(0 -0.000499741 1.36687e-07)
(0 -0.000499642 1.93392e-07)
(0 -0.000475717 2.64178e-07)
(0 -0.000525585 4.26854e-07)
(0 -0.000525289 6.40613e-07)
(0 -0.000433583 8.22941e-07)
(0 -0.000585931 1.81418e-06)
(0 -0.000585004 3.13576e-06)
(0 -0.000472776 4.7112e-06)
(0 -0.000431895 8.62005e-06)
(0 -0.000524386 1.63217e-05)
(0 -0.000480931 -1.54937e-05)
(0 -0.000543308 -3.70975e-05)
(0 -0.000397086 -2.00808e-05)
(0 -0.000336166 -1.26897e-05)
(0 -0.000277003 -7.76209e-06)
(0 -0.000245103 -6.79854e-06)
(0 -0.000313255 -8.87394e-06)
(0 -0.000287855 -7.53247e-06)
(0 -0.000205113 -5.02177e-06)
(0 -0.000173595 -3.82263e-06)
(0 -0.000182767 -4.72422e-06)
(0 -0.000162457 -5.11959e-06)
(0 -9.71655e-05 -3.31529e-06)
(0 -8.65427e-05 -3.81993e-06)
(0 -0.000104225 -4.07832e-06)
(0 -8.27545e-05 -3.30203e-06)
(0 -4.19866e-05 -2.02184e-06)
(0 -1.74121e-05 -9.43681e-07)
(0 -0.000393964 -5.16026e-06)
(0 -0.000567481 -4.0117e-06)
(0 -0.0005421 -2.35726e-06)
(0 -0.000427332 -1.23455e-06)
(0 -0.000658454 -1.31936e-06)
(0 -0.000582983 -8.29595e-07)
(0 -0.000496749 -5.08642e-07)
(0 -0.000414689 -3.07789e-07)
(0 -0.000498265 -2.69191e-07)
(0 -0.000433679 -1.70956e-07)
(0 -0.000623839 -1.79685e-07)
(0 -0.000453928 -9.56122e-08)
(0 -0.000475717 -7.33124e-08)
(0 -0.000525933 -5.93189e-08)
(0 -0.000475937 -3.9294e-08)
(0 -0.000416504 -2.51744e-08)
(0 -0.000434659 -1.92344e-08)
(0 -0.00062487 -2.02455e-08)
(0 -0.000666565 -1.58123e-08)
(0 -0.000526257 -9.14038e-09)
(0 -0.000588187 -7.47974e-09)
(0 -0.000476162 -4.43316e-09)
(0 -0.000434764 -2.96328e-09)
(0 -0.000499984 -2.49457e-09)
(0 -0.000526304 -1.92194e-09)
(0 -0.000434775 -1.16184e-09)
(0 -0.000666659 -1.30332e-09)
(0 -0.000454542 -6.4986e-10)
(0 -0.000454543 -4.74996e-10)
(0 -0.000434781 -3.31839e-10)
(0 -0.000588234 -3.27556e-10)
(0 -0.000624999 -2.5353e-10)
(0 -0.000526315 -1.55185e-10)
(0 -0.0005 -1.06812e-10)
(0 -0.000416666 -6.41763e-11)
(0 -0.00047619 -5.24877e-11)
(0 -0.000625 -4.87174e-11)
(0 -0.00047619 -2.57343e-11)
(0 -0.0005 -1.80862e-11)
(0 -0.000526316 -1.1892e-11)
(0 -0.0005 -5.99199e-12)
(0 -0.000454546 -1.50155e-12)
(0 -0.000434783 1.86762e-12)
(0 -0.000625 7.22335e-12)
(0 -0.000666667 1.2797e-11)
(0 -0.000416667 1.16509e-11)
(0 -0.000526316 2.03806e-11)
(0 -0.000416667 2.18923e-11)
(0 -0.000434782 3.07759e-11)
(0 -0.000434782 4.14154e-11)
(0 -0.000555555 7.13187e-11)
(0 -0.000526315 9.12686e-11)
(0 -0.000454545 1.06733e-10)
(0 -0.000624999 1.99147e-10)
(0 -0.000499999 2.16575e-10)
(0 -0.000476189 2.80783e-10)
(0 -0.000555553 4.46418e-10)
(0 -0.000555552 6.08883e-10)
(0 -0.000434778 6.50371e-10)
(0 -0.000434777 8.88157e-10)
(0 -0.000666655 1.86071e-09)
(0 -0.000555542 2.11971e-09)
(0 -0.000434768 2.26911e-09)
(0 -0.000416647 2.97655e-09)
(0 -0.00055552 5.4373e-09)
(0 -0.00052627 7.0656e-09)
(0 -0.000526254 9.70709e-09)
(0 -0.000454472 1.15426e-08)
(0 -0.000588104 2.06282e-08)
(0 -0.000476045 2.31566e-08)
(0 -0.000475989 3.22978e-08)
(0 -0.000475911 4.54149e-08)
(0 -0.000475801 6.45953e-08)
(0 -0.000624282 1.22556e-07)
(0 -0.000665577 1.93342e-07)
(0 -0.000433753 1.92584e-07)
(0 -0.000433253 3.07617e-07)
(0 -0.000497286 6.00935e-07)
(0 -0.000471977 1.05605e-06)
(0 -0.000427991 1.98081e-06)
(0 -0.00064611 7.04729e-06)
(0 -0.000464689 8.6615e-06)
(0 -0.000415186 -1.10217e-05)
(0 -0.000476176 -1.82379e-05)
(0 -0.000415878 -1.03573e-05)
(0 -0.000274017 -5.37898e-06)
(0 -0.000359521 -4.29227e-06)
(0 -0.000288169 -3.64661e-06)
(0 -0.000208705 -3.46461e-06)
(0 -0.000208075 -3.29162e-06)
(0 -0.000177371 -2.5023e-06)
(0 -0.000215263 -2.48122e-06)
(0 -0.000171407 -2.48136e-06)
(0 -0.000114725 -2.0978e-06)
(0 -0.000148018 -2.15238e-06)
(0 -8.36963e-05 -1.79679e-06)
(0 -7.30315e-05 -1.8733e-06)