/*--------------------------------*- C++ -*----------------------------------*\
| =========                 |                                                 |
| \\      /  F ield         | foam-extend: Open Source CFD                    |
|  \\    /   O peration     | Version:     5.0                                |
|   \\  /    A nd           | Web:         http://www.foam-extend.org         |
|    \\/     M anipulation  |                                                 |
\*---------------------------------------------------------------------------*/
FoamFile
{
    version     2.0;
    format      ascii;
    class       surfaceScalarField;
    location    "5";
    object      phi;
}
// * * * * * * * * * * * * * * * * * * * * * * * * * * * * * * * * * * * * * //

dimensions      [0 3 -1 0 0 0 0];

internalField   nonuniform List<scalar> 
99
(
1.2249e-06
1.22528e-06
1.22564e-06
1.22632e-06
1.22647e-06
1.2266e-06
1.22601e-06
1.2259e-06
1.22489e-06
1.22467e-06
1.22499e-06
1.22513e-06
1.22536e-06
1.22554e-06
1.22543e-06
1.22512e-06
1.22507e-06
1.22582e-06
1.22551e-06
1.22695e-06
1.22577e-06
1.22628e-06
1.22638e-06
1.22756e-06
1.22739e-06
1.2347e-06
1.25167e-06
1.2666e-06
1.2815e-06
1.2368e-06
1.2666e-06
1.2815e-06
1.2964e-06
1.2964e-06
1.2666e-06
1.2517e-06
1.2666e-06
1.2815e-06
1.2666e-06
1.2815e-06
1.2815e-06
1.2964e-06
1.3113e-06
1.2964e-06
1.2666e-06
1.2666e-06
1.2517e-06
1.2815e-06
1.2517e-06
1.2815e-06
1.2368e-06
1.2368e-06
1.19209e-06
1.2219e-06
1.2517e-06
1.2666e-06
1.2666e-06
1.3113e-06
1.2964e-06
1.3262e-06
1.35601e-06
1.3262e-06
1.2964e-06
1.3113e-06
1.3262e-06
1.3262e-06
1.2815e-06
1.3113e-06
1.3113e-06
1.3113e-06
1.3113e-06
1.2815e-06
1.2964e-06
1.3411e-06
1.3411e-06
1.37091e-06
1.3411e-06
1.3113e-06
1.35601e-06
1.3411e-06
1.38581e-06
1.3262e-06
1.37091e-06
1.3411e-06
1.35601e-06
1.35601e-06
1.3411e-06
1.3411e-06
1.35601e-06
1.35601e-06
1.3411e-06
1.3411e-06
1.3113e-06
1.3113e-06
1.3113e-06
1.2964e-06
1.2815e-06
1.2964e-06
1.2666e-06
)
;

boundaryField
{
    inlet
    {
        type            calculated;
        value           uniform -1.225e-06;
    }
    outlet
    {
        type            calculated;
        value           uniform 1.3113e-06;
    }
    yzfaces
    {
        type            empty;
    }
}


// ************************************************************************* //
