/*--------------------------------*- C++ -*----------------------------------*\
| =========                 |                                                 |
| \\      /  F ield         | foam-extend: Open Source CFD                    |
|  \\    /   O peration     | Version:     5.0                                |
|   \\  /    A nd           | Web:         http://www.foam-extend.org         |
|    \\/     M anipulation  |                                                 |
\*---------------------------------------------------------------------------*/
FoamFile
{
    version     2.0;
    format      ascii;
    class       volVectorField;
    location    "5";
    object      U.gas;
}
// * * * * * * * * * * * * * * * * * * * * * * * * * * * * * * * * * * * * * //

dimensions      [0 1 -1 0 0 0 0];

internalField   nonuniform List<vector> 
100
(
(0.00011208 0 0)
(0.000250461 0 0)
(0.000379235 0 0)
(0.000504683 0 0)
(0.000627472 0 0)
(0.000749488 0 0)
(0.000872315 0 0)
(0.000995534 0 0)
(0.00111892 0 0)
(0.00124346 0 0)
(0.00137319 0 0)
(0.00150309 0 0)
(0.00163438 0 0)
(0.00176925 0 0)
(0.00190751 0 0)
(0.00205185 0 0)
(0.0022057 0 0)
(0.00237707 0 0)
(0.0025696 0 0)
(0.00280329 0 0)
(0.00309969 0 0)
(0.00352574 0 0)
(0.00424264 0 0)
(0.00591879 0 0)
(0.011673 0 0)
(0.00501005 0 0)
(0.00507309 0 0)
(0.00513933 0 0)
(0.0052002 0 0)
(0.00513938 0 0)
(0.00510897 0 0)
(0.0052002 0 0)
(0.00526102 0 0)
(0.00529143 0 0)
(0.00523061 0 0)
(0.00513938 0 0)
(0.00513938 0 0)
(0.0052002 0 0)
(0.0052002 0 0)
(0.0052002 0 0)
(0.00523061 0 0)
(0.00526102 0 0)
(0.00532184 0 0)
(0.00532184 0 0)
(0.00523061 0 0)
(0.00516979 0 0)
(0.00513938 0 0)
(0.00516979 0 0)
(0.00516979 0 0)
(0.00516979 0 0)
(0.00513938 0 0)
(0.00504815 0 0)
(0.00495692 0 0)
(0.00492651 0 0)
(0.00504815 0 0)
(0.00513938 0 0)
(0.00516979 0 0)
(0.00526102 0 0)
(0.00532184 0 0)
(0.00535225 0 0)
(0.0054739 0 0)
(0.0054739 0 0)
(0.00535225 0 0)
(0.00532184 0 0)
(0.00538266 0 0)
(0.00541307 0 0)
(0.00532184 0 0)
(0.00529143 0 0)
(0.00535225 0 0)
(0.00535225 0 0)
(0.00535225 0 0)
(0.00529143 0 0)
(0.00526102 0 0)
(0.00538266 0 0)
(0.0054739 0 0)
(0.00553472 0 0)
(0.00553472 0 0)
(0.00541307 0 0)
(0.00544349 0 0)
(0.00550431 0 0)
(0.00556513 0 0)
(0.00553472 0 0)
(0.00550431 0 0)
(0.00553472 0 0)
(0.00550431 0 0)
(0.00553472 0 0)
(0.00550431 0 0)
(0.0054739 0 0)
(0.00550431 0 0)
(0.00553472 0 0)
(0.00550431 0 0)
(0.0054739 0 0)
(0.00541307 0 0)
(0.00535225 0 0)
(0.00535225 0 0)
(0.00532184 0 0)
(0.00526102 0 0)
(0.00526102 0 0)
(0.00523061 0 0)
(0.00526102 0 0)
)
;

boundaryField
{
    inlet
    {
        type            fixedValue;
        value           uniform (0 0 0);
    }
    outlet
    {
        type            zeroGradient;
    }
    yzfaces
    {
        type            empty;
    }
}


// ************************************************************************* //
