/*--------------------------------*- C++ -*----------------------------------*\
| =========                 |                                                 |
| \\      /  F ield         | foam-extend: Open Source CFD                    |
|  \\    /   O peration     | Version:     5.0                                |
|   \\  /    A nd           | Web:         http://www.foam-extend.org         |
|    \\/     M anipulation  |                                                 |
\*---------------------------------------------------------------------------*/
FoamFile
{
    version     2.0;
    format      ascii;
    class       volScalarField;
    location    "4";
    object      alpha.water;
}
// * * * * * * * * * * * * * * * * * * * * * * * * * * * * * * * * * * * * * //

dimensions      [0 0 0 0 0 0 0];

internalField   nonuniform List<scalar> 
100
(
0.199798
0.199673
0.199556
0.199443
0.19933
0.199218
0.199105
0.198992
0.198876
0.198757
0.198633
0.198503
0.198363
0.19821
0.198034
0.19782
0.19753
0.197095
0.196294
0.194115
0.181386
0.0709891
0.0104439
0.01003
0.00996423
0.0099838
0.0100457
0.00998288
0.00996432
0.0100215
0.0100497
0.00998261
0.0100234
0.0100064
0.0100258
0.0100465
0.0100043
0.010025
0.0100298
0.0100022
0.00996462
0.0100068
0.0099182
0.00998367
0.00995686
0.00997926
0.00998655
0.0100488
0.00997928
0.0100051
0.0100742
0.0100276
0.0100293
0.0100461
0.00998526
0.0100714
0.0100538
0.00993367
0.0100476
0.0100691
0.0100507
0.00994529
0.0100281
0.00996
0.00994074
0.010074
0.0100077
0.0100321
0.00998308
0.0100032
0.0100504
0.0100436
0.0100717
0.010025
0.0100767
0.0100483
0.0100259
0.0100001
0.00996021
0.0100062
0.00991846
0.010022
0.0100071
0.00991596
0.00996365
0.0099408
0.00993757
0.00993828
0.0100313
0.00996075
0.00998141
0.0100251
0.00998527
0.00993739
0.0100954
0.0100061
0.0099159
0.0100043
0.00995825
0.0100474
)
;

boundaryField
{
    inlet
    {
        type            fixedValue;
        value           uniform 0.2;
    }
    outlet
    {
        type            zeroGradient;
    }
    yzfaces
    {
        type            empty;
    }
}


// ************************************************************************* //
