/*--------------------------------*- C++ -*----------------------------------*\
| =========                 |                                                 |
| \\      /  F ield         | foam-extend: Open Source CFD                    |
|  \\    /   O peration     | Version:     5.0                                |
|   \\  /    A nd           | Web:         http://www.foam-extend.org         |
|    \\/     M anipulation  |                                                 |
\*---------------------------------------------------------------------------*/
FoamFile
{
    version     2.0;
    format      ascii;
    class       volScalarField;
    location    "4";
    object      CO2.water;
}
// * * * * * * * * * * * * * * * * * * * * * * * * * * * * * * * * * * * * * //

dimensions      [0 0 0 0 0 0 0];

internalField   nonuniform List<scalar> 
100
(
9.47805e-10
1.55527e-08
1.30575e-07
7.47642e-07
3.27968e-06
1.17783e-05
3.59979e-05
9.63806e-05
0.000230531
0.000501267
0.00100146
0.00185833
0.00322963
0.00529479
0.00824433
0.0122485
0.0174444
0.0238843
0.0315465
0.0402042
0.0474286
0.026359
0.0101524
0.0100007
0.0100003
0.00999993
0.00999933
0.0100002
0.0100002
0.0100005
0.00999975
0.0100002
0.0100002
0.0100006
0.01
0.0100001
0.00999967
0.0100007
0.00999977
0.0100012
0.00999854
0.0100011
0.00999892
0.0100007
0.00999956
0.00999923
0.00999972
0.00999963
0.0100012
0.00999966
0.0100005
0.00999881
0.0100001
0.00999905
0.0100003
0.0100001
0.0100001
0.0100002
0.00999892
0.00999985
0.0099996
0.0099998
0.00999993
0.00999909
0.00999973
0.0100004
0.0099996
0.0100005
0.00999944
0.0100002
0.0100001
0.0100003
0.0100001
0.0100005
0.0099995
0.0100004
0.0100004
0.00999995
0.0100005
0.00999912
0.0100015
0.00999923
0.0100003
0.00999916
0.0099997
0.0100007
0.0100002
0.0100003
0.00999983
0.0100001
0.00999994
0.00999974
0.00999952
0.0100005
0.00999945
0.0100004
0.0100002
0.00999971
0.00999991
0.00999855
)
;

boundaryField
{
    inlet
    {
        type            fixedValue;
        value           uniform 0;
    }
    outlet
    {
        type            zeroGradient;
    }
    yzfaces
    {
        type            empty;
    }
}


// ************************************************************************* //
