/*--------------------------------*- C++ -*----------------------------------*\
| =========                 |                                                 |
| \\      /  F ield         | foam-extend: Open Source CFD                    |
|  \\    /   O peration     | Version:     5.0                                |
|   \\  /    A nd           | Web:         http://www.foam-extend.org         |
|    \\/     M anipulation  |                                                 |
\*---------------------------------------------------------------------------*/
FoamFile
{
    version     2.0;
    format      ascii;
    class       surfaceScalarField;
    location    "4";
    object      phi;
}
// * * * * * * * * * * * * * * * * * * * * * * * * * * * * * * * * * * * * * //

dimensions      [0 3 -1 0 0 0 0];

internalField   nonuniform List<scalar> 
99
(
1.22516e-06
1.22494e-06
1.22534e-06
1.22541e-06
1.22552e-06
1.22569e-06
1.22601e-06
1.22567e-06
1.22503e-06
1.22438e-06
1.22428e-06
1.22408e-06
1.22454e-06
1.22455e-06
1.22469e-06
1.22522e-06
1.22496e-06
1.22511e-06
1.22521e-06
1.22584e-06
1.22563e-06
1.22392e-06
1.25097e-06
1.24429e-06
1.24541e-06
1.25234e-06
1.27272e-06
1.27384e-06
1.25979e-06
1.28e-06
1.30414e-06
1.27389e-06
1.30311e-06
1.28847e-06
1.30341e-06
1.31773e-06
1.29596e-06
1.3111e-06
1.31106e-06
1.29621e-06
1.27547e-06
1.27437e-06
1.23768e-06
1.23664e-06
1.22944e-06
1.2294e-06
1.21585e-06
1.23605e-06
1.22946e-06
1.22934e-06
1.26606e-06
1.26662e-06
1.26588e-06
1.28768e-06
1.26693e-06
1.30281e-06
1.31107e-06
1.26643e-06
1.32544e-06
1.32492e-06
1.34035e-06
1.27578e-06
1.32627e-06
1.29678e-06
1.27495e-06
1.34779e-06
1.32657e-06
1.35608e-06
1.33399e-06
1.34831e-06
1.36991e-06
1.3771e-06
1.38453e-06
1.36988e-06
1.40048e-06
1.39227e-06
1.40073e-06
1.38533e-06
1.37846e-06
1.40078e-06
1.35693e-06
1.39248e-06
1.39385e-06
1.37182e-06
1.36441e-06
1.35006e-06
1.33458e-06
1.31145e-06
1.34889e-06
1.33375e-06
1.31852e-06
1.34782e-06
1.34974e-06
1.31168e-06
1.38503e-06
1.34089e-06
1.31222e-06
1.34092e-06
1.31967e-06
)
;

boundaryField
{
    inlet
    {
        type            calculated;
        value           uniform -1.225e-06;
    }
    outlet
    {
        type            calculated;
        value           uniform 1.34145e-06;
    }
    yzfaces
    {
        type            empty;
    }
}


// ************************************************************************* //
