/*--------------------------------*- C++ -*----------------------------------*\
| =========                 |                                                 |
| \\      /  F ield         | foam-extend: Open Source CFD                    |
|  \\    /   O peration     | Version:     5.0                                |
|   \\  /    A nd           | Web:         http://www.foam-extend.org         |
|    \\/     M anipulation  |                                                 |
\*---------------------------------------------------------------------------*/
FoamFile
{
    version     2.0;
    format      ascii;
    class       volScalarField;
    location    "4";
    object      S.water;
}
// * * * * * * * * * * * * * * * * * * * * * * * * * * * * * * * * * * * * * //

dimensions      [0 0 0 0 0 0 0];

internalField   nonuniform List<scalar> 
100
(
0.998992
0.998366
0.997781
0.997215
0.996648
0.996088
0.995525
0.994959
0.994378
0.993785
0.993165
0.992514
0.991816
0.991049
0.990172
0.989098
0.987651
0.985475
0.981469
0.970577
0.906928
0.354946
0.0522197
0.0501499
0.0498212
0.049919
0.0502285
0.0499144
0.0498216
0.0501077
0.0502487
0.049913
0.0501168
0.0500319
0.0501289
0.0502325
0.0500217
0.0501248
0.0501492
0.0500112
0.0498231
0.0500338
0.049591
0.0499183
0.0497843
0.0498963
0.0499328
0.0502438
0.0498964
0.0500255
0.0503709
0.0501381
0.0501465
0.0502305
0.0499263
0.0503571
0.0502691
0.0496684
0.050238
0.0503455
0.0502536
0.0497265
0.0501405
0.0498
0.0497037
0.0503698
0.0500383
0.0501604
0.0499154
0.050016
0.0502521
0.0502182
0.0503584
0.050125
0.0503835
0.0502416
0.0501293
0.0500004
0.0498011
0.0500309
0.0495923
0.0501098
0.0500357
0.0495798
0.0498182
0.049704
0.0496879
0.0496914
0.0501565
0.0498037
0.0499071
0.0501257
0.0499263
0.0496869
0.0504772
0.0500304
0.0495795
0.0500216
0.0497913
0.0502372
)
;

boundaryField
{
    inlet
    {
        type            calculated;
        value           uniform 1;
    }
    outlet
    {
        type            calculated;
        value           uniform 0.0502372;
    }
    yzfaces
    {
        type            empty;
    }
}


// ************************************************************************* //
