/*--------------------------------*- C++ -*----------------------------------*\
| =========                 |                                                 |
| \\      /  F ield         | foam-extend: Open Source CFD                    |
|  \\    /   O peration     | Version:     5.0                                |
|   \\  /    A nd           | Web:         http://www.foam-extend.org         |
|    \\/     M anipulation  |                                                 |
\*---------------------------------------------------------------------------*/
FoamFile
{
    version     2.0;
    format      ascii;
    class       volVectorField;
    location    "4";
    object      U.gas;
}
// * * * * * * * * * * * * * * * * * * * * * * * * * * * * * * * * * * * * * //

dimensions      [0 1 -1 0 0 0 0];

internalField   nonuniform List<vector> 
100
(
(0.000143542 0 0)
(0.000321463 0 0)
(0.000488115 0 0)
(0.000649949 0 0)
(0.000809916 0 0)
(0.000970989 0 0)
(0.00113139 0 0)
(0.00129207 0 0)
(0.00145399 0 0)
(0.00162021 0 0)
(0.00179164 0 0)
(0.00197129 0 0)
(0.00216032 0 0)
(0.00236455 0 0)
(0.00258929 0 0)
(0.00284969 0 0)
(0.00317179 0 0)
(0.00361435 0 0)
(0.00432469 0 0)
(0.00590779 0 0)
(0.011391 0 0)
(0.00530267 0 0)
(0.00531492 0 0)
(0.00536098 0 0)
(0.00534719 0 0)
(0.00536502 0 0)
(0.00542544 0 0)
(0.00546983 0 0)
(0.00544154 0 0)
(0.00545641 0 0)
(0.0055525 0 0)
(0.0055374 0 0)
(0.00553639 0 0)
(0.00556722 0 0)
(0.00556844 0 0)
(0.00563193 0 0)
(0.00561467 0 0)
(0.00560103 0 0)
(0.00563361 0 0)
(0.0056008 0 0)
(0.00552326 0 0)
(0.00547756 0 0)
(0.00539386 0 0)
(0.00531469 0 0)
(0.00529625 0 0)
(0.00528133 0 0)
(0.00525234 0 0)
(0.00526834 0 0)
(0.00529564 0 0)
(0.00528194 0 0)
(0.00536253 0 0)
(0.00544131 0 0)
(0.00544095 0 0)
(0.0054867 0 0)
(0.00548719 0 0)
(0.00552218 0 0)
(0.00561652 0 0)
(0.00553486 0 0)
(0.00556905 0 0)
(0.00569536 0 0)
(0.00572685 0 0)
(0.00561815 0 0)
(0.00559035 0 0)
(0.00563345 0 0)
(0.00552268 0 0)
(0.00563618 0 0)
(0.00574509 0 0)
(0.00576364 0 0)
(0.0057781 0 0)
(0.00576201 0 0)
(0.00584061 0 0)
(0.00590226 0 0)
(0.00593454 0 0)
(0.00591759 0 0)
(0.00595349 0 0)
(0.0060007 0 0)
(0.00600053 0 0)
(0.0059848 0 0)
(0.00593572 0 0)
(0.00597035 0 0)
(0.00592135 0 0)
(0.00590676 0 0)
(0.00598562 0 0)
(0.00593837 0 0)
(0.00587664 0 0)
(0.0058292 0 0)
(0.00576504 0 0)
(0.00568215 0 0)
(0.00571568 0 0)
(0.00576145 0 0)
(0.00569684 0 0)
(0.00572838 0 0)
(0.00579423 0 0)
(0.00571517 0 0)
(0.00579577 0 0)
(0.00585581 0 0)
(0.00569669 0 0)
(0.00569939 0 0)
(0.00571402 0 0)
(0.00571784 0 0)
)
;

boundaryField
{
    inlet
    {
        type            fixedValue;
        value           uniform (0 0 0);
    }
    outlet
    {
        type            zeroGradient;
    }
    yzfaces
    {
        type            empty;
    }
}


// ************************************************************************* //
