/*--------------------------------*- C++ -*----------------------------------*\
| =========                 |                                                 |
| \\      /  F ield         | foam-extend: Open Source CFD                    |
|  \\    /   O peration     | Version:     5.0                                |
|   \\  /    A nd           | Web:         http://www.foam-extend.org         |
|    \\/     M anipulation  |                                                 |
\*---------------------------------------------------------------------------*/
FoamFile
{
    version     2.0;
    format      ascii;
    class       volScalarField;
    location    "9";
    object      YCO2;
}
// * * * * * * * * * * * * * * * * * * * * * * * * * * * * * * * * * * * * * //

dimensions      [0 0 0 0 0 0 0];

internalField   nonuniform List<scalar> 
100
(
0.0169842
-0.0200173
0.019787
-0.00786823
-0.00432188
-0.00164393
0.00559068
0.00899095
-0.0323325
0.0363006
-0.00851538
-0.0273641
0.0447817
-0.041987
0.0321798
-0.0249749
0.0208062
-0.0163595
0.0136293
-0.0173603
0.0278543
-0.0413809
0.0516414
-0.0524837
0.0423081
-0.0260763
0.0131991
-0.00714432
0.00366566
0.000401046
-0.00293043
-0.000441101
0.00903226
-0.0154959
0.0148522
-0.00987475
0.00547366
-0.0025784
3.68214e-06
0.00173018
-0.00130068
-0.00129297
0.00573706
-0.0116528
0.0130728
-0.0035399
0.0168109
0.0418347
0.138754
0.175867
0.29475
0.457525
0.607809
0.68699
0.790485
0.788656
0.952625
0.905737
0.95835
0.94766
1.04028
0.926528
1.05738
0.895742
1.0597
0.898461
1.08051
0.915013
1.1055
0.965701
1.10896
1.02176
1.0315
1.058
0.983199
1.08856
0.995151
0.988476
1.03528
0.938594
1.07456
0.915841
1.04694
0.943149
1.06235
0.957351
1.0165
0.949392
0.979512
0.978534
0.968759
1.01301
0.991817
0.973776
1.05288
0.996876
1.03503
0.996087
1.05992
1.01283
)
;

boundaryField
{
    inlet
    {
        type            fixedValue;
        value           uniform 0;
    }
    outlet
    {
        type            zeroGradient;
    }
    yzfaces
    {
        type            empty;
    }
}


// ************************************************************************* //
