/*--------------------------------*- C++ -*----------------------------------*\
| =========                 |                                                 |
| \\      /  F ield         | foam-extend: Open Source CFD                    |
|  \\    /   O peration     | Version:     5.0                                |
|   \\  /    A nd           | Web:         http://www.foam-extend.org         |
|    \\/     M anipulation  |                                                 |
\*---------------------------------------------------------------------------*/
FoamFile
{
    version     2.0;
    format      ascii;
    class       volScalarField;
    location    "10000";
    object      alpha.water;
}
// * * * * * * * * * * * * * * * * * * * * * * * * * * * * * * * * * * * * * //

dimensions      [0 0 0 0 0 0 0];

internalField   nonuniform List<scalar> 
1000
(
0
0
0
0
0
0
0
0
0
0
0
0
0
0
0
0
0
0
0
0
0
0
0
0
0
0
0
0
0
0
0
0
0
0
0
0
0
0
0
0
0
0
0
0
0
0
0
2.61587e-18
2.25826e-09
4.36107e-05
0.00577262
0.0408328
0.0821843
0.0923036
0.0853204
0.109661
0.0809817
0.109753
0.0949805
0.0905134
0.0914137
0.103734
0.139566
0.111803
0.106813
0.137504
0.108646
0.127636
0.110286
0.111008
0.105514
0.131106
0.100648
0.120133
0.120886
0.121629
0.115931
0.116587
0.104223
0.137426
0.125212
0.125953
0.126707
0.107343
0.114538
0.142159
0.109066
0.157419
0.144876
0.152845
0.10505
0.133554
0.155567
0.128291
0.121816
0.144004
0.152317
0.160965
0.110992
0.126488
0
0
0
0
0
0
0
0
0
0
0
0
0
0
0
0
0
0
0
0
0
0
0
0
0
0
0
0
0
0
0
0
0
0
0
0
0
0
0
0
0
0
0
0
0
0
0
0
1.65293e-16
1.53524e-08
0.00013035
0.00975674
0.0355281
0.0820983
0.0930863
0.105799
0.0966532
0.0892808
0.121125
0.123601
0.10474
0.0847825
0.090832
0.102367
0.114154
0.082333
0.127012
0.0892215
0.0953735
0.0959747
0.113609
0.120178
0.138413
0.116413
0.0997091
0.0885188
0.0889674
0.119195
0.102032
0.14489
0.0975061
0.110316
0.148049
0.0996549
0.100249
0.151253
0.120976
0.115535
0.103492
0.143213
0.151231
0.159563
0.114509
0.102007
0.123454
0.138735
0.119636
0.114154
0.108529
0.132218
0
0
0
0
0
0
0
0
0
0
0
0
0
0
0
0
0
0
0
0
0
0
0
0
0
0
0
0
0
0
0
0
0
0
0
0
0
0
0
0
0
0
0
0
0
0
0
0
0
1.01353e-11
3.09445e-06
0.00127273
0.0209633
0.0595627
0.0882456
0.0955012
0.0734137
0.0704347
0.0715365
0.0966136
0.0784554
0.074289
0.0898929
0.0857119
0.111849
0.118217
0.0935366
0.0995184
0.0950321
0.116991
0.128782
0.102963
0.0873432
0.131761
0.116382
0.128508
0.124046
0.0853315
0.11439
0.126806
0.139566
0.140972
0.106855
0.143594
0.127033
0.11608
0.135656
0.149618
0.132577
0.153263
0.0971349
0.111081
0.125452
0.120319
0.115011
0.12322
0.159533
0.113016
0.143224
0.16065
0
0
0
0
0
0
0
0
0
0
0
0
0
0
0
0
0
0
0
0
0
0
0
0
0
0
0
0
0
0
0
0
0
0
0
0
0
0
0
0
0
0
0
0
0
0
0
0
0
2.53591e-18
1.4797e-09
4.37168e-05
0.00512719
0.0407664
0.0768901
0.068928
0.0944062
0.067287
0.0823309
0.0792849
0.0804893
0.100761
0.0730628
0.078705
0.0943747
0.0803529
0.116525
0.0923141
0.113869
0.109886
0.0793183
0.0852347
0.0966117
0.0811828
0.125324
0.0991095
0.133228
0.0954131
0.101821
0.108371
0.0920764
0.121761
0.128823
0.124248
0.119515
0.144798
0.134341
0.148247
0.143963
0.13318
0.102771
0.0973323
0.157243
0.146434
0.121668
0.150728
0.104598
0.127207
0.122123
0.16074
0
0
0
0
0
0
0
0
0
0
0
0
0
0
0
0
0
0
0
0
0
0
0
0
0
0
0
0
0
0
0
0
0
0
0
0
0
0
0
0
0
0
0
0
0
0
0
0
0
0
8.80695e-12
2.84287e-06
0.00165889
0.019803
0.0508282
0.0769442
0.0656955
0.0686245
0.0971013
0.0682559
0.0878511
0.075296
0.0953604
0.0870787
0.0783388
0.0989033
0.110062
0.121544
0.0769378
0.0982022
0.119993
0.110794
0.117251
0.107739
0.0924756
0.115215
0.083157
0.128489
0.0847696
0.0911332
0.120618
0.127731
0.135129
0.0952043
0.0900943
0.109064
0.0918363
0.135891
0.100099
0.10106
0.14025
0.154991
0.150785
0.126525
0.141782
0.123472
0.153103
0.148852
0.122939
0.110555
0
0
0
0
0
0
0
0
0
0
0
0
0
0
0
0
0
0
0
0
0
0
0
0
0
0
0
0
0
0
0
0
0
0
0
0
0
0
0
0
0
0
0
0
0
0
0
0
0
0
7.83688e-19
1.33435e-09
3.49731e-05
0.0040726
0.0334262
0.0478559
0.073947
0.0812412
0.0769859
0.0750108
0.0812016
0.101178
0.0938216
0.100041
0.111154
0.107892
0.119244
0.120883
0.0918507
0.0927323
0.124807
0.0947544
0.111559
0.0805202
0.102756
0.0982469
0.088107
0.122075
0.0953438
0.130051
0.0857611
0.138235
0.139866
0.13567
0.119408
0.108641
0.128026
0.129537
0.137362
0.120187
0.115212
0.123022
0.11803
0.139419
0.154947
0.164461
0.132736
0.135035
0.108671
0.110589
0
0
0
0
0
0
0
0
0
0
0
0
0
0
0
0
0
0
0
0
0
0
0
0
0
0
0
0
0
0
0
0
0
0
0
0
0
0
0
0
0
0
0
0
0
0
0
0
0
0
0
1.34452e-15
5.28279e-08
0.000216233
0.00792388
0.0443828
0.0701071
0.0664418
0.0826581
0.0949687
0.107241
0.101141
0.103216
0.0716077
0.110974
0.0832616
0.118777
0.0953506
0.106505
0.112836
0.10895
0.110128
0.0953888
0.101605
0.0809823
0.125112
0.0825263
0.12197
0.123313
0.0963394
0.120034
0.0982077
0.0874131
0.135054
0.136589
0.14417
0.145969
0.135519
0.143398
0.145282
0.102454
0.116416
0.150478
0.146125
0.148363
0.137109
0.132306
0.134371
0.136633
0.14657
0
0
0
0
0
0
0
0
0
0
0
0
0
0
0
0
0
0
0
0
0
0
0
0
0
0
0
0
0
0
0
0
0
0
0
0
0
0
0
0
0
0
0
0
0
0
0
0
0
0
0
4.73054e-16
2.41262e-08
0.000155691
0.00829176
0.0467282
0.0714091
0.0672853
0.0628221
0.082213
0.106992
0.0779788
0.09323
0.080535
0.0815387
0.077639
0.112766
0.0894769
0.115557
0.122146
0.113454
0.0782875
0.0789639
0.111464
0.0912224
0.0920425
0.125638
0.121591
0.128594
0.0848967
0.131275
0.0924687
0.139993
0.112319
0.0956599
0.138883
0.110185
0.111447
0.106477
0.101333
0.0960318
0.142247
0.150934
0.10675
0.155426
0.130785
0.118993
0.106717
0.108372
0.124959
0
0
0
0
0
0
0
0
0
0
0
0
0
0
0
0
0
0
0
0
0
0
0
0
0
0
0
0
0
0
0
0
0
0
0
0
0
0
0
0
0
0
0
0
0
0
0
0
0
0
0
0
2.37194e-11
4.77896e-06
0.00168163
0.0200808
0.0559068
0.0702988
0.0776068
0.0736396
0.0971001
0.100147
0.102483
0.0908747
0.0738079
0.0980066
0.0757223
0.109998
0.101841
0.117861
0.0796713
0.115628
0.112038
0.103137
0.104358
0.0791958
0.095942
0.102378
0.114418
0.0882368
0.111371
0.123947
0.13693
0.109937
0.134623
0.11868
0.120177
0.127795
0.0925199
0.149568
0.0949544
0.134337
0.11682
0.151215
0.15374
0.149646
0.15926
0.120086
0.150652
0.139329
0
0
0
0
0
0
0
0
0
0
0
0
0
0
0
0
0
0
0
0
0
0
0
0
0
0
0
0
0
0
0
0
0
0
0
0
0
0
0
0
0
0
0
0
0
0
0
0
0
0
0
0
7.34544e-18
3.0229e-09
6.06235e-05
0.00626048
0.0260646
0.0527928
0.0601357
0.0544615
0.0847228
0.0551538
0.0749416
0.0574157
0.0777155
0.0751675
0.0603213
0.0692731
0.0661244
0.0753769
0.0637058
0.073093
0.0653602
0.0793895
0.0760127
0.0906145
0.110372
0.0842176
0.0854191
0.096271
0.112446
0.0845737
0.121138
0.107969
0.099381
0.101026
0.113539
0.0991155
0.128823
0.131511
0.105168
0.0893301
0.121242
0.136302
0.107934
0.142772
0.153374
0.103128
0.112798
0.13059
)
;

boundaryField
{
    inlet
    {
        type            fixedValue;
        value           uniform 0.1;
    }
    outlet
    {
        type            zeroGradient;
    }
    walls
    {
        type            zeroGradient;
    }
}


// ************************************************************************* //
