/*--------------------------------*- C++ -*----------------------------------*\
| =========                 |                                                 |
| \\      /  F ield         | foam-extend: Open Source CFD                    |
|  \\    /   O peration     | Version:     5.0                                |
|   \\  /    A nd           | Web:         http://www.foam-extend.org         |
|    \\/     M anipulation  |                                                 |
\*---------------------------------------------------------------------------*/
FoamFile
{
    version     2.0;
    format      ascii;
    class       volScalarField;
    location    "10000";
    object      alpha.oil;
}
// * * * * * * * * * * * * * * * * * * * * * * * * * * * * * * * * * * * * * //

dimensions      [0 0 0 0 0 0 0];

internalField   nonuniform List<scalar> 
1000
(
0.22
0.22
0.17
0.19
0.17
0.16
0.15
0.2
0.15
0.16
0.24
0.22
0.24
0.24
0.229999
0.149996
0.169989
0.239983
0.199975
0.229966
0.239956
0.189946
0.179935
0.209924
0.179912
0.1699
0.189887
0.21987
0.219847
0.149838
0.149831
0.219694
0.188259
0.184973
0.163586
0.210843
0.229486
0.219653
0.152656
0.190632
0.228533
0.190255
0.228065
0.161371
0.218073
0.208342
0.141871
0.188913
0.207515
0.160074
0.192048
0.14932
0.128186
0.0987159
0.0765933
0.0898976
0.0612389
0.079551
0.0656331
0.0603998
0.0592519
0.0654833
0.0856653
0.0661652
0.0614784
0.0771304
0.058984
0.0675383
0.0566442
0.0555584
0.0514408
0.0623268
0.0463538
0.0539911
0.0527642
0.0515273
0.0476232
0.0464625
0.0402413
0.0515557
0.0451402
0.0437512
0.042317
0.0343898
0.0354033
0.0422089
0.0306807
0.0424358
0.0365077
0.0359853
0.0228168
0.0273305
0.029307
0.0216689
0.0185622
0.0195831
0.0175746
0.0148147
0.00713351
0.00544633
0.16
0.219998
0.179993
0.189986
0.239978
0.239965
0.159954
0.23994
0.199927
0.189912
0.169899
0.189881
0.209824
0.168895
0.165561
0.22006
0.14206
0.188932
0.179122
0.207066
0.169147
0.197025
0.159235
0.177674
0.177371
0.186382
0.195351
0.167136
0.194631
0.13876
0.212365
0.147458
0.165621
0.165386
0.174326
0.219907
0.173877
0.219359
0.20084
0.173245
0.218568
0.181933
0.199891
0.199667
0.154119
0.18111
0.144739
0.135555
0.135439
0.171474
0.180478
0.19012
0.102721
0.139175
0.108739
0.104092
0.0850368
0.0736809
0.0955148
0.0923749
0.0747342
0.0584348
0.0609762
0.0668854
0.0724469
0.0506088
0.076338
0.0518496
0.0541314
0.0531361
0.0613449
0.0629961
0.0702974
0.0569531
0.0471894
0.0406962
0.0398502
0.0520226
0.0429932
0.0591553
0.0379833
0.0415653
0.0536911
0.0342549
0.0331448
0.0480441
0.0360397
0.0325436
0.0275175
0.0360977
0.0352184
0.0338918
0.021677
0.0174991
0.0192015
0.0188427
0.0134243
0.0102927
0.00741358
0.00608043
0.207706
0.201716
0.140863
0.158637
0.223117
0.194623
0.194184
0.184523
0.184104
0.156123
0.20157
0.219355
0.154992
0.172842
0.145261
0.163095
0.171839
0.162535
0.171299
0.189042
0.161791
0.179492
0.18818
0.187895
0.214413
0.205172
0.151423
0.168983
0.133212
0.150755
0.212534
0.185733
0.185519
0.185322
0.202752
0.140889
0.158308
0.18447
0.210574
0.15775
0.131301
0.192343
0.130997
0.209352
0.191712
0.147998
0.156559
0.182513
0.182431
0.156368
0.147767
0.138126
0.146858
0.128087
0.116461
0.0989086
0.0671819
0.0608969
0.0593989
0.0774915
0.0604352
0.0556155
0.0656532
0.0608528
0.0774012
0.0791452
0.0605332
0.0627443
0.0583376
0.0700385
0.0747392
0.0577259
0.0476431
0.070255
0.0598877
0.0640438
0.0596207
0.039548
0.0517244
0.0554208
0.0586387
0.0566094
0.0408512
0.0527957
0.0442295
0.0383778
0.0426337
0.0442062
0.0363704
0.039124
0.0226005
0.0241993
0.0252284
0.0218956
0.0188059
0.0179478
0.0201205
0.0112764
0.011495
0.0085421
0.160232
0.16022
0.213415
0.195346
0.159589
0.159352
0.16795
0.194166
0.193858
0.16716
0.14055
0.157883
0.183937
0.183703
0.166016
0.139641
0.174341
0.148014
0.147833
0.138967
0.199521
0.1473
0.18174
0.207461
0.155419
0.18111
0.146447
0.129069
0.189086
0.188885
0.145807
0.128524
0.188318
0.128285
0.145253
0.153652
0.170563
0.136323
0.12768
0.195588
0.178422
0.135821
0.186586
0.194907
0.135483
0.194606
0.143746
0.169016
0.168953
0.202722
0.12674
0.185939
0.164831
0.158734
0.123878
0.0784295
0.0953292
0.0614681
0.0717386
0.0658225
0.0642724
0.077676
0.0540953
0.0566846
0.0661061
0.0545169
0.0770067
0.0588128
0.0704982
0.0657252
0.0458553
0.0480552
0.0530753
0.0433188
0.0652504
0.0496936
0.0647895
0.0445083
0.0460488
0.0473981
0.0388157
0.0497082
0.0503885
0.0463908
0.0425949
0.0492629
0.0430261
0.0446952
0.040347
0.0345598
0.0246321
0.0218103
0.0329242
0.0271865
0.0198163
0.0215818
0.0123234
0.0125877
0.00928693
0.0084542
0.171909
0.171922
0.197655
0.180362
0.180222
0.171487
0.15419
0.171151
0.196623
0.153725
0.187699
0.144903
0.127736
0.13613
0.161516
0.135901
0.161244
0.203505
0.186397
0.152382
0.143796
0.135224
0.143555
0.177187
0.134894
0.160057
0.176768
0.168223
0.142884
0.134379
0.193031
0.134194
0.167629
0.167524
0.200904
0.125491
0.133772
0.150401
0.125259
0.183603
0.15014
0.191742
0.19998
0.158244
0.149845
0.158099
0.158037
0.182929
0.141323
0.124681
0.174557
0.141338
0.181579
0.116191
0.104371
0.103533
0.0709775
0.0675463
0.0896006
0.0586355
0.0725672
0.0595051
0.0728533
0.0640229
0.0557471
0.0684535
0.0737091
0.0785579
0.0478763
0.0596801
0.0708159
0.0630881
0.0645821
0.0572463
0.0475075
0.0574238
0.039916
0.0599386
0.037851
0.0394594
0.0505006
0.0511521
0.0514472
0.0342584
0.0310452
0.0360365
0.0288128
0.0407237
0.0279851
0.02675
0.0351069
0.0357158
0.0313064
0.0233178
0.023266
0.0174217
0.018442
0.0140536
0.00817608
0.00448001
0.134521
0.151347
0.184954
0.184897
0.151212
0.159526
0.192994
0.142559
0.184368
0.192626
0.184136
0.133836
0.175552
0.142033
0.183703
0.183606
0.133462
0.125052
0.158311
0.183211
0.199766
0.174711
0.157995
0.149606
0.166148
0.132856
0.182591
0.165919
0.149263
0.14091
0.140851
0.157359
0.1573
0.148967
0.182006
0.190218
0.173624
0.148775
0.156993
0.148688
0.18168
0.198149
0.140324
0.189804
0.198015
0.131985
0.181444
0.123694
0.148414
0.17314
0.189633
0.197896
0.148415
0.136841
0.136353
0.0807191
0.0968985
0.0888053
0.0754833
0.0686031
0.0705393
0.0839113
0.0740685
0.0759181
0.0812142
0.0757641
0.0807556
0.0787423
0.0575901
0.0564988
0.0738856
0.0539856
0.0617202
0.0430419
0.0535632
0.049615
0.0431285
0.0581317
0.0436437
0.0577123
0.0364394
0.0570101
0.0549336
0.050569
0.0421554
0.0364507
0.0409013
0.0389697
0.0387029
0.031426
0.0280336
0.027768
0.024391
0.0262385
0.0258143
0.0233189
0.0151491
0.0121531
0.00690483
0.00441275
0.12431
0.19063
0.149185
0.198885
0.173984
0.124238
0.157316
0.157261
0.140657
0.18196
0.173628
0.123978
0.181771
0.148675
0.189914
0.132076
0.14854
0.189745
0.173198
0.164906
0.148377
0.156578
0.173016
0.123553
0.172929
0.197588
0.189314
0.148127
0.181005
0.131614
0.148034
0.164451
0.147979
0.147952
0.189017
0.164337
0.172528
0.180718
0.172481
0.188886
0.188867
0.172429
0.180626
0.188824
0.197024
0.139554
0.17238
0.131333
0.155953
0.15595
0.139534
0.147744
0.197
0.155796
0.116569
0.142503
0.109412
0.0781895
0.0869041
0.0909178
0.0949179
0.0836476
0.081167
0.053861
0.0811702
0.0584994
0.0810977
0.0626023
0.067834
0.0695298
0.0648491
0.0634032
0.0531218
0.0549446
0.0424323
0.0639061
0.0405227
0.0582845
0.0566127
0.0424322
0.0511316
0.0400923
0.0344209
0.0514936
0.0495405
0.049599
0.0473016
0.0411612
0.0408252
0.038403
0.0249294
0.0265648
0.0317309
0.0275191
0.0246131
0.0194766
0.0158276
0.0131243
0.0101531
0.00707736
0.138494
0.122267
0.138615
0.138641
0.163122
0.195752
0.130498
0.163116
0.195729
0.163097
0.171241
0.146771
0.130457
0.130452
0.171213
0.130446
0.130443
0.163052
0.122288
0.13044
0.122287
0.154896
0.138592
0.171203
0.122289
0.171206
0.163056
0.130447
0.171214
0.195676
0.195679
0.138608
0.122304
0.138614
0.171234
0.179394
0.130473
0.154944
0.163109
0.146809
0.163134
0.195781
0.138695
0.122391
0.195847
0.155066
0.187733
0.146937
0.18777
0.146961
0.187795
0.13881
0.15515
0.171361
0.148324
0.147826
0.107225
0.0765468
0.0636204
0.0775354
0.0942605
0.0641822
0.0737493
0.0611547
0.059961
0.0553634
0.0782007
0.0597239
0.0748443
0.0762066
0.0680531
0.0452679
0.0444544
0.0611308
0.0482766
0.0472749
0.0625974
0.0581264
0.0589417
0.0371623
0.055627
0.0372689
0.0543072
0.0411245
0.0332844
0.04613
0.0342132
0.0326225
0.0292668
0.0261263
0.0231866
0.0322223
0.0308387
0.0192004
0.0250825
0.017639
0.0132376
0.00945629
0.00730941
0.00550769
0.168252
0.176363
0.115233
0.13079
0.184863
0.154195
0.169757
0.177604
0.177724
0.185572
0.162477
0.131615
0.147198
0.116286
0.186187
0.147495
0.124292
0.132152
0.124465
0.171259
0.186956
0.179288
0.140408
0.14831
0.117166
0.164143
0.148608
0.117398
0.14097
0.117551
0.148994
0.133394
0.117775
0.172849
0.125786
0.157336
0.188925
0.181172
0.189179
0.118323
0.165776
0.126405
0.134412
0.118695
0.158389
0.182303
0.118998
0.127041
0.190732
0.143186
0.119437
0.135499
0.183519
0.14379
0.142639
0.11958
0.11972
0.0965862
0.0884282
0.0752085
0.0925961
0.0890202
0.0862781
0.0729672
0.0570911
0.0736433
0.0548926
0.0776035
0.0692154
0.0774012
0.0503201
0.0710945
0.0663385
0.058825
0.0574259
0.0420074
0.0493997
0.0508885
0.0548002
0.0405271
0.0494553
0.0527454
0.0555485
0.0421751
0.0492792
0.0409521
0.0392081
0.0392926
0.0266112
0.0408297
0.0237517
0.0316338
0.0251032
0.0297588
0.0266744
0.0223179
0.0198504
0.0116939
0.0115391
0.00655103
0.0954408
0.0907043
0.114184
0.103328
0.103808
0.115809
0.1046
0.0932922
0.111149
0.0938833
0.105946
0.106263
0.0947366
0.106903
0.0953073
0.125471
0.131826
0.132204
0.114506
0.145069
0.145483
0.0972668
0.115858
0.110088
0.147228
0.141507
0.129585
0.136163
0.142778
0.105844
0.131148
0.119009
0.13193
0.094512
0.151681
0.145774
0.12712
0.101993
0.127878
0.147499
0.147939
0.122587
0.148874
0.123387
0.15639
0.0980886
0.150946
0.111989
0.0991934
0.152699
0.120004
0.160694
0.134533
0.128462
0.156483
0.153459
0.0832478
0.0939355
0.0780866
0.0611096
0.0880361
0.0523457
0.0682684
0.0498569
0.065333
0.0606832
0.0469234
0.0523504
0.0483876
0.0535301
0.0437625
0.0488331
0.0423101
0.0499728
0.0462792
0.0534367
0.0626646
0.0456219
0.0445929
0.0483857
0.0541237
0.0386469
0.0531328
0.0446359
0.0388805
0.0374726
0.0398206
0.0325508
0.0398052
0.0373947
0.0272315
0.0213105
0.0267853
0.0269618
0.0185182
0.0214839
0.0188323
0.00947799
0.00796449
0.00599111
)
;

boundaryField
{
    inlet
    {
        type            fixedValue;
        value           uniform 0;
    }
    outlet
    {
        type            zeroGradient;
    }
    walls
    {
        type            zeroGradient;
    }
}


// ************************************************************************* //
