/*--------------------------------*- C++ -*----------------------------------*\
| =========                 |                                                 |
| \\      /  F ield         | foam-extend: Open Source CFD                    |
|  \\    /   O peration     | Version:     5.0                                |
|   \\  /    A nd           | Web:         http://www.foam-extend.org         |
|    \\/     M anipulation  |                                                 |
\*---------------------------------------------------------------------------*/
FoamFile
{
    version     2.0;
    format      ascii;
    class       volScalarField;
    location    "10000";
    object      alpha.gas;
}
// * * * * * * * * * * * * * * * * * * * * * * * * * * * * * * * * * * * * * //

dimensions      [0 0 0 0 0 0 0];

internalField   nonuniform List<scalar> 
1000
(
6.1433e-17
2.21738e-14
1.27168e-12
6.07767e-12
1.37414e-11
4.78358e-11
2.44428e-10
2.16772e-10
5.43842e-10
9.84482e-10
1.78845e-09
2.19875e-09
2.92684e-09
2.9957e-08
6.9721e-07
3.70152e-06
1.0647e-05
1.65779e-05
2.48989e-05
3.35318e-05
4.41717e-05
5.37207e-05
6.46718e-05
7.60476e-05
8.80589e-05
9.97451e-05
0.000113384
0.000130234
0.000153412
0.000162357
0.000169437
0.000306355
0.00174119
0.00502704
0.00641406
0.00915677
0.0105139
0.0103471
0.00734445
0.00936806
0.0114668
0.00974492
0.0119345
0.00862865
0.0119266
0.0116582
0.00812851
0.0110874
0.0124851
0.00988289
0.0121789
0.00984692
0.00962929
0.0089805
0.00808626
0.0104414
0.00777939
0.0106962
0.00938636
0.00908684
0.00933443
0.0107825
0.0147682
0.0120316
0.0117088
0.0153651
0.0123696
0.0148259
0.01307
0.0134341
0.0130448
0.0165676
0.0129985
0.0158758
0.0163495
0.0168437
0.0164458
0.0169505
0.0155359
0.0210187
0.0196479
0.0202955
0.020976
0.0182675
0.0200587
0.0256325
0.0202531
0.0301452
0.0286166
0.0311698
0.0221327
0.0291153
0.0351263
0.0300397
0.0296218
0.0364131
0.0401082
0.0442206
0.031874
0.0380654
6.87911e-08
1.51079e-06
7.13072e-06
1.3555e-05
2.18497e-05
3.46043e-05
4.63343e-05
5.98087e-05
7.33134e-05
8.81066e-05
0.000101061
0.000118935
0.000175938
0.00110506
0.00443876
0.0099397
0.00793967
0.0110675
0.0108785
0.0129338
0.0108532
0.0129755
0.0107648
0.0123261
0.0126285
0.0136185
0.0146494
0.0128636
0.0153689
0.0112404
0.0176348
0.0125422
0.0143788
0.0146145
0.0156742
0.0200926
0.0161228
0.0206409
0.0191597
0.0167548
0.021432
0.0180672
0.0201093
0.0203335
0.0158806
0.0188901
0.0152615
0.0144449
0.0145607
0.018526
0.0193912
0.0201235
0.0117511
0.0187269
0.0181751
0.0201093
0.01831
0.0170383
0.0233603
0.0240243
0.0205255
0.0167828
0.0181917
0.0207471
0.0233987
0.0170582
0.0266501
0.0189289
0.0204952
0.0208891
0.0250461
0.0268255
0.0312894
0.0266335
0.0231015
0.0207849
0.0211824
0.0287825
0.0249745
0.0359548
0.0245106
0.028119
0.0382595
0.0260902
0.026606
0.0407028
0.0329846
0.0319218
0.0289906
0.0406895
0.0435506
0.0465453
0.0338136
0.0304943
0.0373443
0.0424226
0.0369399
0.0355533
0.0340572
0.0417018
0.0022942
0.00828357
0.00913687
0.0113631
0.0168832
0.0153775
0.0158155
0.0154768
0.0158964
0.0138774
0.0184295
0.0206454
0.0150084
0.0171576
0.0147394
0.0169049
0.0181614
0.0174652
0.0187013
0.0209584
0.0182095
0.0205077
0.0218197
0.0221048
0.0255873
0.0248277
0.0185766
0.0210165
0.0167878
0.0192454
0.0274655
0.0242666
0.0244807
0.024678
0.0272477
0.0191113
0.0216916
0.0255299
0.0294261
0.0222502
0.0186985
0.0276573
0.0190031
0.0306482
0.0282878
0.0220016
0.0234412
0.0274871
0.027569
0.0236315
0.0222303
0.0206017
0.0221788
0.0223499
0.0252932
0.0255902
0.0194044
0.0186684
0.0190646
0.025895
0.0211094
0.0200955
0.0244539
0.0234353
0.0307494
0.032638
0.0259302
0.0277372
0.0266303
0.0329702
0.0364784
0.029311
0.0250137
0.0379844
0.0337303
0.0374481
0.0363329
0.0251205
0.0338854
0.0377733
0.0417956
0.0424184
0.0322936
0.0436099
0.0387375
0.0355425
0.04171
0.0461758
0.0410522
0.0476133
0.0302646
0.03472
0.0393195
0.0377854
0.0361834
0.0388323
0.0503462
0.035708
0.0452807
0.050808
0.0197681
0.01978
0.0265847
0.0246543
0.0204111
0.020648
0.0220496
0.0258344
0.0261419
0.0228403
0.0194502
0.0221174
0.026063
0.026297
0.0239844
0.0203586
0.0256591
0.0219862
0.0221667
0.0210326
0.0304794
0.0226999
0.0282603
0.0325394
0.024581
0.0288897
0.0235534
0.0209306
0.0309135
0.0311148
0.0241929
0.0214763
0.0316817
0.0217152
0.0247472
0.0263477
0.0294371
0.0236773
0.0223201
0.0344119
0.0315778
0.0241792
0.0334136
0.0350929
0.0245174
0.0353945
0.026254
0.0309838
0.0310465
0.0372784
0.02326
0.0340175
0.0300417
0.0304992
0.0292317
0.0226426
0.0302646
0.0212449
0.0259304
0.0248926
0.0252383
0.0315629
0.0228419
0.0246104
0.0295192
0.0251302
0.0364681
0.0288731
0.0356329
0.0343884
0.0248264
0.0267101
0.030313
0.0254984
0.0394253
0.0311969
0.0419824
0.0300787
0.0321298
0.0342311
0.0291079
0.0385304
0.0407889
0.0393613
0.0378899
0.0459391
0.0426329
0.0470576
0.0456899
0.0422597
0.0325974
0.0308574
0.0498323
0.0463797
0.0385156
0.0476906
0.0330783
0.0402057
0.0385905
0.0508056
0.0280909
0.0280782
0.0323446
0.0296375
0.0297775
0.0285125
0.0258096
0.0288494
0.0333769
0.0262751
0.0323015
0.0250975
0.0222637
0.0238701
0.0284842
0.0240989
0.0287563
0.0364952
0.0336035
0.0276176
0.0262039
0.0247758
0.0264447
0.0328126
0.0251058
0.0299428
0.0332323
0.0317766
0.0271165
0.0256208
0.0369694
0.0258065
0.0323705
0.0324759
0.0390956
0.0245089
0.0262275
0.0295992
0.0247408
0.0363965
0.0298598
0.0382584
0.0400203
0.0317561
0.0301551
0.0319008
0.0319632
0.0370708
0.0286774
0.0253186
0.0354432
0.0286591
0.0367624
0.0240055
0.0248003
0.0295223
0.023327
0.0238292
0.0332981
0.0231086
0.0295816
0.0251989
0.0317863
0.0288984
0.0259142
0.0326432
0.0362288
0.0398982
0.0251859
0.0321177
0.0391912
0.0361178
0.0381671
0.0350152
0.0300169
0.037361
0.026927
0.0415722
0.0273794
0.0294074
0.0388814
0.0411172
0.0434235
0.0305372
0.0288604
0.0348993
0.0293509
0.0433858
0.0319155
0.0321904
0.0446428
0.0492935
0.0479083
0.0401575
0.0449522
0.0391065
0.0484554
0.047094
0.0388852
0.0349648
0.0254789
0.0286532
0.0350455
0.0351032
0.0287885
0.0304744
0.0370056
0.0274408
0.0356315
0.037374
0.0358639
0.0261641
0.0344479
0.0279669
0.0362967
0.0363937
0.0265378
0.0249482
0.0316887
0.0367887
0.0402337
0.0352888
0.0320052
0.0303941
0.033852
0.0271436
0.0374093
0.0340808
0.0307375
0.0290902
0.029149
0.0326412
0.0327004
0.0310331
0.0379935
0.0397821
0.0363763
0.0312246
0.0330067
0.0313117
0.0383197
0.0418513
0.0296756
0.0401958
0.0419846
0.028015
0.0385564
0.0263063
0.0315858
0.0368601
0.0403672
0.0421044
0.0315496
0.029086
0.0302212
0.021425
0.0291545
0.0299535
0.0275307
0.0263862
0.0282591
0.0349108
0.0321098
0.0340406
0.0376318
0.0363436
0.0399999
0.0403751
0.0305592
0.0307689
0.0413071
0.0312601
0.0367209
0.0264379
0.0336813
0.0321381
0.0287645
0.0397935
0.0310125
0.0422372
0.0277995
0.0447545
0.0452004
0.0437608
0.0384367
0.0349083
0.041073
0.0414928
0.0439355
0.0383869
0.0367543
0.0392096
0.0375788
0.0443428
0.0492385
0.0522197
0.0421147
0.0428114
0.0344238
0.0349984
0.0256902
0.0393697
0.0308145
0.0411153
0.0360157
0.0257615
0.0326836
0.0327387
0.0293432
0.0380398
0.0363717
0.0260223
0.0382288
0.031325
0.0400862
0.0279244
0.0314602
0.040255
0.0368016
0.0350935
0.0316235
0.0334218
0.0369843
0.0264475
0.0370706
0.0424121
0.0406859
0.0318725
0.0389948
0.0283865
0.0319655
0.0355493
0.0320215
0.032048
0.0409828
0.0356626
0.0374721
0.0392821
0.0375187
0.0411143
0.041133
0.0375708
0.0393742
0.0411761
0.042976
0.0304463
0.0376195
0.0286665
0.0340473
0.0340498
0.0304659
0.0322562
0.0430002
0.0339877
0.0255072
0.0331145
0.0304809
0.0253687
0.0304378
0.0341135
0.0378412
0.0352112
0.035617
0.0245313
0.0378553
0.028239
0.0401249
0.0320472
0.0356612
0.0376342
0.0362009
0.0364691
0.0314895
0.0334501
0.0265853
0.0409821
0.026951
0.0397451
0.0400746
0.0312284
0.0388339
0.0317
0.028166
0.043452
0.0438704
0.0462313
0.0467295
0.0433196
0.0457768
0.0463153
0.0326162
0.037019
0.0477916
0.0463555
0.0470239
0.043414
0.0418668
0.0425046
0.0432137
0.0463523
0.0315057
0.0277334
0.031385
0.0313588
0.0368775
0.0442484
0.029502
0.0368836
0.0442714
0.0369033
0.0387585
0.0332294
0.0295431
0.0295479
0.0387868
0.0295545
0.0295569
0.0369484
0.027712
0.0295605
0.0277134
0.035104
0.0314081
0.0387972
0.0277108
0.0387936
0.0369438
0.029553
0.038786
0.0443237
0.0443207
0.0313917
0.0276962
0.0313856
0.0387658
0.0406063
0.0295269
0.0350557
0.0368911
0.0331913
0.0368657
0.0442195
0.0313052
0.0276087
0.0441527
0.0349335
0.0422668
0.0330625
0.0422302
0.0330395
0.0422054
0.0311898
0.0348504
0.0384832
0.0333842
0.0354461
0.0313657
0.0261679
0.0235575
0.0302516
0.0387472
0.027839
0.0330207
0.0283103
0.0285003
0.0269976
0.0390332
0.0307992
0.0395988
0.0416477
0.0384929
0.0264446
0.0265816
0.0374048
0.0305009
0.0306826
0.0417648
0.0402826
0.0424638
0.027941
0.0430982
0.0302624
0.0457003
0.0365561
0.0310557
0.0449869
0.0356015
0.0359305
0.0342566
0.032541
0.0307816
0.045531
0.0482274
0.0340492
0.0494916
0.0415758
0.037769
0.0338265
0.0343184
0.0395338
0.0517485
0.0536369
0.034767
0.0392098
0.0551375
0.0458051
0.0502433
0.0523958
0.0522755
0.0544281
0.0475227
0.0383855
0.0428021
0.0337136
0.053813
0.0425047
0.0357081
0.0378477
0.0355348
0.0487413
0.0530442
0.0507116
0.0395916
0.04169
0.0328342
0.045857
0.0413921
0.0326016
0.0390295
0.0324495
0.0410062
0.0366061
0.0322247
0.0471507
0.0342139
0.0426644
0.0510747
0.0488281
0.0508209
0.0316773
0.0442239
0.0335952
0.0355885
0.0313054
0.0416113
0.0476973
0.0310022
0.032959
0.0492676
0.0368143
0.0305627
0.0345012
0.0464814
0.0362052
0.0356796
0.0303393
0.0343729
0.033115
0.033965
0.0311519
0.0403038
0.040833
0.0412386
0.0361581
0.029101
0.0383501
0.0293851
0.0423986
0.0389432
0.0447375
0.0300086
0.043277
0.0416239
0.0380383
0.0382166
0.0287968
0.0346583
0.036734
0.0407821
0.0312362
0.0391739
0.0433076
0.0475219
0.0378882
0.0460973
0.0403677
0.0406146
0.0429123
0.0308689
0.0496023
0.031294
0.044029
0.0380773
0.0490261
0.049586
0.0480361
0.0508897
0.0382205
0.0478093
0.0441205
0.0745592
0.0692957
0.0858159
0.0766717
0.076192
0.0841912
0.0753999
0.0667078
0.0788513
0.0661167
0.0740537
0.0737374
0.0652634
0.0730968
0.0646927
0.0845286
0.0881745
0.0877957
0.0754943
0.0949306
0.0945174
0.0627332
0.0741424
0.0699119
0.0927721
0.0884934
0.0804153
0.0838366
0.087222
0.0641561
0.0788523
0.0709907
0.0780698
0.055488
0.088319
0.0842265
0.0728798
0.0580071
0.0721216
0.0825012
0.0820606
0.0674127
0.0811258
0.0666129
0.0836099
0.0519114
0.0790536
0.0580114
0.0508066
0.0773007
0.0599963
0.0793061
0.0654672
0.0615381
0.0734566
0.0702807
0.0406876
0.0532717
0.0517777
0.0444289
0.0672411
0.0425005
0.05679
0.0427274
0.0569515
0.0541493
0.0427553
0.0483765
0.045488
0.051093
0.0425317
0.0480739
0.0423298
0.0506377
0.0477081
0.0559488
0.0669631
0.0501605
0.0499881
0.0553433
0.0634307
0.0467793
0.0657293
0.0573953
0.0517385
0.0515013
0.0566402
0.0483337
0.0613716
0.0610939
0.0476005
0.0393595
0.0519729
0.0567364
0.0435474
0.055744
0.0577932
0.0373943
0.0392372
0.0434184
)
;

boundaryField
{
    inlet
    {
        type            fixedValue;
        value           uniform 0.1;
    }
    outlet
    {
        type            zeroGradient;
    }
    walls
    {
        type            zeroGradient;
    }
}


// ************************************************************************* //
