/*--------------------------------*- C++ -*----------------------------------*\
| =========                 |                                                 |
| \\      /  F ield         | foam-extend: Open Source CFD                    |
|  \\    /   O peration     | Version:     5.0                                |
|   \\  /    A nd           | Web:         http://www.foam-extend.org         |
|    \\/     M anipulation  |                                                 |
\*---------------------------------------------------------------------------*/
FoamFile
{
    version     2.0;
    format      ascii;
    class       volScalarField;
    location    "10000";
    object      p;
}
// * * * * * * * * * * * * * * * * * * * * * * * * * * * * * * * * * * * * * //

dimensions      [1 -1 -2 0 0 0 0];

internalField   nonuniform List<scalar> 
1000
(
0.10075
0.102203
0.103631
0.105045
0.10645
0.107849
0.109243
0.110636
0.112026
0.113415
0.114803
0.116191
0.117579
0.11897
0.120368
0.121771
0.123175
0.12458
0.125985
0.127392
0.128799
0.130208
0.131618
0.133029
0.134442
0.135855
0.13727
0.138685
0.140101
0.141518
0.142933
0.144345
0.145767
0.147206
0.148647
0.150087
0.151526
0.152965
0.154405
0.155846
0.157287
0.158729
0.160172
0.161614
0.163055
0.164494
0.16593
0.167358
0.168774
0.170165
0.171574
0.173324
0.175268
0.177196
0.179092
0.180963
0.182801
0.184626
0.18643
0.188216
0.189985
0.191737
0.193472
0.195185
0.19688
0.198557
0.200212
0.20185
0.203469
0.20507
0.206655
0.208222
0.209768
0.211298
0.212809
0.214303
0.215778
0.217237
0.218677
0.220101
0.221503
0.222886
0.224248
0.225589
0.226911
0.228214
0.229491
0.23075
0.231983
0.233192
0.234374
0.235534
0.236669
0.237776
0.238858
0.239915
0.240941
0.241936
0.242893
0.24382
0.100718
0.102148
0.103567
0.104976
0.106378
0.107774
0.109168
0.110559
0.111949
0.113337
0.114726
0.116112
0.117497
0.118885
0.12029
0.121698
0.123104
0.124509
0.125915
0.127321
0.128729
0.130138
0.131548
0.13296
0.134372
0.135786
0.137201
0.138617
0.140034
0.141452
0.142869
0.144289
0.145713
0.147145
0.148581
0.150019
0.151457
0.152896
0.154336
0.155777
0.157218
0.158661
0.160103
0.161546
0.162989
0.16443
0.165869
0.167303
0.168731
0.170152
0.17158
0.173136
0.175055
0.177046
0.178979
0.180862
0.182707
0.184534
0.186346
0.188136
0.189905
0.191656
0.19339
0.195106
0.196802
0.198478
0.200136
0.201773
0.203392
0.204995
0.20658
0.208146
0.209694
0.211223
0.212734
0.214227
0.215703
0.217162
0.218603
0.220027
0.221429
0.222812
0.224176
0.225516
0.226838
0.228141
0.229419
0.230675
0.231908
0.233118
0.234302
0.235462
0.236595
0.237702
0.238785
0.239841
0.240866
0.241859
0.24282
0.24375
0.100694
0.102112
0.103522
0.104924
0.106321
0.107714
0.109105
0.110495
0.111884
0.113273
0.114661
0.11605
0.117438
0.11883
0.120229
0.121632
0.123035
0.124439
0.125845
0.127251
0.128659
0.130068
0.131478
0.13289
0.134303
0.135717
0.137132
0.138549
0.139967
0.141385
0.142805
0.144228
0.145654
0.147084
0.148518
0.149954
0.151391
0.15283
0.15427
0.155711
0.157153
0.158596
0.16004
0.161484
0.162929
0.164373
0.165817
0.167259
0.168699
0.170141
0.171591
0.173079
0.174815
0.176827
0.178814
0.180723
0.182586
0.184426
0.186247
0.188046
0.189821
0.191576
0.193313
0.19503
0.196728
0.198406
0.200063
0.201701
0.20332
0.204923
0.206507
0.208072
0.209619
0.21115
0.212662
0.214156
0.215632
0.217089
0.218531
0.219954
0.221358
0.222742
0.224104
0.225447
0.226768
0.228069
0.229348
0.230605
0.231837
0.233046
0.234227
0.235387
0.236523
0.237632
0.238713
0.239769
0.240795
0.241786
0.24275
0.243681
0.100694
0.102089
0.103485
0.104877
0.106268
0.107657
0.109045
0.110433
0.11182
0.113208
0.114597
0.115986
0.117376
0.118769
0.120167
0.121567
0.122969
0.124372
0.125777
0.127184
0.128591
0.13
0.131411
0.132822
0.134235
0.13565
0.137066
0.138483
0.139902
0.141321
0.142743
0.144167
0.145594
0.147024
0.148457
0.149892
0.151329
0.152767
0.154207
0.155648
0.157091
0.158535
0.15998
0.161426
0.162874
0.164322
0.165771
0.167221
0.168673
0.170129
0.171595
0.173078
0.174649
0.176568
0.178606
0.180553
0.182453
0.184312
0.186148
0.187955
0.189739
0.1915
0.193237
0.194955
0.196654
0.198332
0.199992
0.201629
0.203249
0.204851
0.206433
0.207998
0.209546
0.211075
0.212589
0.214083
0.21556
0.217017
0.218457
0.21988
0.221284
0.222669
0.224033
0.225375
0.226695
0.227997
0.229276
0.230532
0.231764
0.232971
0.234154
0.235315
0.236454
0.237563
0.238644
0.239698
0.24072
0.241714
0.242676
0.243606
0.100688
0.102069
0.103452
0.104835
0.106219
0.107603
0.108987
0.110373
0.111759
0.113146
0.114534
0.115923
0.117315
0.118708
0.120105
0.121504
0.122905
0.124308
0.125712
0.127118
0.128526
0.129934
0.131345
0.132757
0.13417
0.135585
0.137001
0.138419
0.139838
0.141259
0.142682
0.144106
0.145534
0.146964
0.148396
0.149831
0.151267
0.152705
0.154145
0.155587
0.15703
0.158475
0.159921
0.16137
0.16282
0.164272
0.165726
0.167183
0.168644
0.170111
0.171587
0.173071
0.174578
0.17635
0.178365
0.180363
0.182298
0.184189
0.186046
0.187863
0.189656
0.191421
0.193163
0.194882
0.19658
0.19826
0.19992
0.201559
0.203176
0.204778
0.206362
0.207926
0.209473
0.211002
0.212514
0.214009
0.215485
0.216945
0.218384
0.219806
0.221211
0.222597
0.22396
0.2253
0.226621
0.227921
0.229199
0.230457
0.231687
0.232895
0.234082
0.235245
0.236382
0.237491
0.238573
0.239626
0.240651
0.241643
0.2426
0.243525
0.100682
0.102049
0.10342
0.104795
0.106172
0.107551
0.108932
0.110315
0.111699
0.113085
0.114473
0.115862
0.117253
0.118647
0.120043
0.121441
0.122842
0.124244
0.125648
0.127054
0.128461
0.12987
0.13128
0.132692
0.134106
0.135521
0.136937
0.138355
0.139775
0.141197
0.14262
0.144045
0.145473
0.146903
0.148335
0.149769
0.151206
0.152644
0.154084
0.155526
0.156969
0.158415
0.159863
0.161313
0.162766
0.164221
0.16568
0.167143
0.168611
0.170087
0.171572
0.173067
0.174579
0.176174
0.178079
0.18013
0.182133
0.184061
0.185936
0.187771
0.189573
0.191345
0.193088
0.194808
0.196508
0.198186
0.199846
0.201485
0.203103
0.204704
0.206288
0.207852
0.209398
0.210926
0.212439
0.213934
0.21541
0.216871
0.218311
0.219734
0.221136
0.222522
0.223886
0.225228
0.226548
0.227848
0.229126
0.230382
0.231614
0.232821
0.234006
0.235169
0.236306
0.237418
0.238502
0.239556
0.240577
0.241568
0.242525
0.243449
0.100674
0.102028
0.103388
0.104754
0.106124
0.107499
0.108876
0.110257
0.11164
0.113024
0.114411
0.1158
0.117191
0.118585
0.119981
0.121378
0.122778
0.12418
0.125584
0.126989
0.128396
0.129805
0.131215
0.132627
0.134041
0.135456
0.136873
0.138291
0.139712
0.141134
0.142557
0.143983
0.145411
0.146841
0.148273
0.149708
0.151144
0.152582
0.154022
0.155464
0.156908
0.158355
0.159803
0.161255
0.16271
0.164168
0.165631
0.167098
0.168573
0.170054
0.171546
0.17305
0.174569
0.176117
0.177829
0.179875
0.181952
0.183919
0.185824
0.187678
0.18949
0.191264
0.193009
0.194728
0.196429
0.198108
0.199769
0.201407
0.203028
0.20463
0.206212
0.207775
0.209321
0.21085
0.212362
0.213859
0.215335
0.216797
0.218237
0.219658
0.221062
0.222445
0.223809
0.225153
0.226474
0.227775
0.229052
0.230306
0.231538
0.232746
0.233929
0.235093
0.236233
0.237344
0.238428
0.23948
0.240502
0.241493
0.242452
0.243378
0.100664
0.102003
0.103352
0.10471
0.106075
0.107445
0.10882
0.110198
0.11158
0.112964
0.11435
0.115739
0.117129
0.118522
0.119918
0.121315
0.122715
0.124117
0.12552
0.126925
0.128332
0.129741
0.131151
0.132563
0.133976
0.135392
0.136809
0.138227
0.139648
0.14107
0.142494
0.14392
0.145348
0.146779
0.148211
0.149645
0.151081
0.152519
0.153959
0.155401
0.156846
0.158293
0.159742
0.161195
0.162651
0.164112
0.165577
0.167048
0.168527
0.170013
0.17151
0.173017
0.174536
0.176062
0.177692
0.179687
0.181778
0.183776
0.185704
0.187576
0.1894
0.191178
0.192927
0.194648
0.196348
0.198028
0.19969
0.201329
0.202951
0.204553
0.206134
0.207697
0.209243
0.210774
0.212286
0.213781
0.215261
0.216721
0.218162
0.219581
0.220986
0.222369
0.223734
0.225076
0.226397
0.227698
0.228974
0.230228
0.231459
0.232667
0.233852
0.235017
0.236157
0.237267
0.238353
0.239405
0.240426
0.241416
0.242376
0.243303
0.100651
0.101974
0.103314
0.104666
0.106027
0.107394
0.108767
0.110143
0.111524
0.112907
0.114292
0.115681
0.117071
0.118464
0.119859
0.121256
0.122656
0.124057
0.12546
0.126865
0.128271
0.12968
0.13109
0.132502
0.133915
0.135331
0.136748
0.138166
0.139587
0.141009
0.142434
0.14386
0.145288
0.146718
0.148151
0.149585
0.151021
0.152458
0.153898
0.155341
0.156785
0.158232
0.159682
0.161136
0.162593
0.164055
0.165522
0.166995
0.168476
0.169965
0.171464
0.172976
0.1745
0.176037
0.177614
0.179475
0.181593
0.183646
0.185602
0.187484
0.189317
0.1911
0.19285
0.194572
0.196271
0.197952
0.199611
0.201253
0.202874
0.204476
0.206057
0.207622
0.209169
0.210699
0.212211
0.213706
0.215185
0.216645
0.218086
0.219506
0.220911
0.222295
0.22366
0.225001
0.226322
0.227621
0.228897
0.230152
0.231382
0.232593
0.233776
0.23494
0.236079
0.237192
0.238277
0.239331
0.240354
0.241342
0.242304
0.24323
0.100641
0.101955
0.10329
0.104638
0.105996
0.107362
0.108733
0.110109
0.111489
0.112871
0.114256
0.115644
0.117034
0.118427
0.119822
0.121219
0.122618
0.124019
0.125421
0.126826
0.128232
0.12964
0.13105
0.132461
0.133875
0.13529
0.136707
0.138125
0.139546
0.140968
0.142392
0.143819
0.145247
0.146677
0.148109
0.149543
0.150979
0.152416
0.153856
0.155298
0.156742
0.158189
0.159639
0.161092
0.16255
0.164012
0.165479
0.166953
0.168435
0.169925
0.171426
0.17294
0.174469
0.176019
0.177606
0.179334
0.181438
0.183545
0.185527
0.187417
0.189256
0.191037
0.192789
0.194511
0.196213
0.197893
0.19955
0.201191
0.202812
0.204413
0.205995
0.20756
0.209107
0.210637
0.21215
0.213646
0.215125
0.216583
0.218023
0.219446
0.22085
0.222232
0.223597
0.224938
0.226257
0.227555
0.228832
0.230086
0.231319
0.232528
0.23371
0.23487
0.23601
0.237123
0.238205
0.239261
0.240284
0.24127
0.242229
0.243156
)
;

boundaryField
{
    inlet
    {
        type            fluxPressure;
        gradient        nonuniform List<scalar> 10(0.00363636 0.00363636 0.00363636 0.00363636 0.00363636 0.00363636 0.00363636 0.00363636 0.00363636 0.00363636);
        value           nonuniform List<scalar> 10(0.244002 0.243931 0.243863 0.243788 0.243706 0.24363 0.24356 0.243484 0.243412 0.243338);
    }
    outlet
    {
        type            fixedValue;
        value           uniform 0.1;
    }
    walls
    {
        type            fluxPressure;
        gradient        uniform 0;
        value           nonuniform List<scalar> 
2200
(
0.10075
0.102203
0.103631
0.105045
0.10645
0.107849
0.109243
0.110636
0.112026
0.113415
0.114803
0.116191
0.117579
0.11897
0.120368
0.121771
0.123175
0.12458
0.125985
0.127392
0.128799
0.130208
0.131618
0.133029
0.134442
0.135855
0.13727
0.138685
0.140101
0.141518
0.142933
0.144345
0.145767
0.147206
0.148647
0.150087
0.151526
0.152965
0.154405
0.155846
0.157287
0.158729
0.160172
0.161614
0.163055
0.164494
0.16593
0.167358
0.168774
0.170165
0.171574
0.173324
0.175268
0.177196
0.179092
0.180963
0.182801
0.184626
0.18643
0.188216
0.189985
0.191737
0.193472
0.195185
0.19688
0.198557
0.200212
0.20185
0.203469
0.20507
0.206655
0.208222
0.209768
0.211298
0.212809
0.214303
0.215778
0.217237
0.218677
0.220101
0.221503
0.222886
0.224248
0.225589
0.226911
0.228214
0.229491
0.23075
0.231983
0.233192
0.234374
0.235534
0.236669
0.237776
0.238858
0.239915
0.240941
0.241936
0.242893
0.24382
0.100718
0.102148
0.103567
0.104976
0.106378
0.107774
0.109168
0.110559
0.111949
0.113337
0.114726
0.116112
0.117497
0.118885
0.12029
0.121698
0.123104
0.124509
0.125915
0.127321
0.128729
0.130138
0.131548
0.13296
0.134372
0.135786
0.137201
0.138617
0.140034
0.141452
0.142869
0.144289
0.145713
0.147145
0.148581
0.150019
0.151457
0.152896
0.154336
0.155777
0.157218
0.158661
0.160103
0.161546
0.162989
0.16443
0.165869
0.167303
0.168731
0.170152
0.17158
0.173136
0.175055
0.177046
0.178979
0.180862
0.182707
0.184534
0.186346
0.188136
0.189905
0.191656
0.19339
0.195106
0.196802
0.198478
0.200136
0.201773
0.203392
0.204995
0.20658
0.208146
0.209694
0.211223
0.212734
0.214227
0.215703
0.217162
0.218603
0.220027
0.221429
0.222812
0.224176
0.225516
0.226838
0.228141
0.229419
0.230675
0.231908
0.233118
0.234302
0.235462
0.236595
0.237702
0.238785
0.239841
0.240866
0.241859
0.24282
0.24375
0.100694
0.102112
0.103522
0.104924
0.106321
0.107714
0.109105
0.110495
0.111884
0.113273
0.114661
0.11605
0.117438
0.11883
0.120229
0.121632
0.123035
0.124439
0.125845
0.127251
0.128659
0.130068
0.131478
0.13289
0.134303
0.135717
0.137132
0.138549
0.139967
0.141385
0.142805
0.144228
0.145654
0.147084
0.148518
0.149954
0.151391
0.15283
0.15427
0.155711
0.157153
0.158596
0.16004
0.161484
0.162929
0.164373
0.165817
0.167259
0.168699
0.170141
0.171591
0.173079
0.174815
0.176827
0.178814
0.180723
0.182586
0.184426
0.186247
0.188046
0.189821
0.191576
0.193313
0.19503
0.196728
0.198406
0.200063
0.201701
0.20332
0.204923
0.206507
0.208072
0.209619
0.21115
0.212662
0.214156
0.215632
0.217089
0.218531
0.219954
0.221358
0.222742
0.224104
0.225447
0.226768
0.228069
0.229348
0.230605
0.231837
0.233046
0.234227
0.235387
0.236523
0.237632
0.238713
0.239769
0.240795
0.241786
0.24275
0.243681
0.100694
0.102089
0.103485
0.104877
0.106268
0.107657
0.109045
0.110433
0.11182
0.113208
0.114597
0.115986
0.117376
0.118769
0.120167
0.121567
0.122969
0.124372
0.125777
0.127184
0.128591
0.13
0.131411
0.132822
0.134235
0.13565
0.137066
0.138483
0.139902
0.141321
0.142743
0.144167
0.145594
0.147024
0.148457
0.149892
0.151329
0.152767
0.154207
0.155648
0.157091
0.158535
0.15998
0.161426
0.162874
0.164322
0.165771
0.167221
0.168673
0.170129
0.171595
0.173078
0.174649
0.176568
0.178606
0.180553
0.182453
0.184312
0.186148
0.187955
0.189739
0.1915
0.193237
0.194955
0.196654
0.198332
0.199992
0.201629
0.203249
0.204851
0.206433
0.207998
0.209546
0.211075
0.212589
0.214083
0.21556
0.217017
0.218457
0.21988
0.221284
0.222669
0.224033
0.225375
0.226695
0.227997
0.229276
0.230532
0.231764
0.232971
0.234154
0.235315
0.236454
0.237563
0.238644
0.239698
0.24072
0.241714
0.242676
0.243606
0.100688
0.102069
0.103452
0.104835
0.106219
0.107603
0.108987
0.110373
0.111759
0.113146
0.114534
0.115923
0.117315
0.118708
0.120105
0.121504
0.122905
0.124308
0.125712
0.127118
0.128526
0.129934
0.131345
0.132757
0.13417
0.135585
0.137001
0.138419
0.139838
0.141259
0.142682
0.144106
0.145534
0.146964
0.148396
0.149831
0.151267
0.152705
0.154145
0.155587
0.15703
0.158475
0.159921
0.16137
0.16282
0.164272
0.165726
0.167183
0.168644
0.170111
0.171587
0.173071
0.174578
0.17635
0.178365
0.180363
0.182298
0.184189
0.186046
0.187863
0.189656
0.191421
0.193163
0.194882
0.19658
0.19826
0.19992
0.201559
0.203176
0.204778
0.206362
0.207926
0.209473
0.211002
0.212514
0.214009
0.215485
0.216945
0.218384
0.219806
0.221211
0.222597
0.22396
0.2253
0.226621
0.227921
0.229199
0.230457
0.231687
0.232895
0.234082
0.235245
0.236382
0.237491
0.238573
0.239626
0.240651
0.241643
0.2426
0.243525
0.100682
0.102049
0.10342
0.104795
0.106172
0.107551
0.108932
0.110315
0.111699
0.113085
0.114473
0.115862
0.117253
0.118647
0.120043
0.121441
0.122842
0.124244
0.125648
0.127054
0.128461
0.12987
0.13128
0.132692
0.134106
0.135521
0.136937
0.138355
0.139775
0.141197
0.14262
0.144045
0.145473
0.146903
0.148335
0.149769
0.151206
0.152644
0.154084
0.155526
0.156969
0.158415
0.159863
0.161313
0.162766
0.164221
0.16568
0.167143
0.168611
0.170087
0.171572
0.173067
0.174579
0.176174
0.178079
0.18013
0.182133
0.184061
0.185936
0.187771
0.189573
0.191345
0.193088
0.194808
0.196508
0.198186
0.199846
0.201485
0.203103
0.204704
0.206288
0.207852
0.209398
0.210926
0.212439
0.213934
0.21541
0.216871
0.218311
0.219734
0.221136
0.222522
0.223886
0.225228
0.226548
0.227848
0.229126
0.230382
0.231614
0.232821
0.234006
0.235169
0.236306
0.237418
0.238502
0.239556
0.240577
0.241568
0.242525
0.243449
0.100674
0.102028
0.103388
0.104754
0.106124
0.107499
0.108876
0.110257
0.11164
0.113024
0.114411
0.1158
0.117191
0.118585
0.119981
0.121378
0.122778
0.12418
0.125584
0.126989
0.128396
0.129805
0.131215
0.132627
0.134041
0.135456
0.136873
0.138291
0.139712
0.141134
0.142557
0.143983
0.145411
0.146841
0.148273
0.149708
0.151144
0.152582
0.154022
0.155464
0.156908
0.158355
0.159803
0.161255
0.16271
0.164168
0.165631
0.167098
0.168573
0.170054
0.171546
0.17305
0.174569
0.176117
0.177829
0.179875
0.181952
0.183919
0.185824
0.187678
0.18949
0.191264
0.193009
0.194728
0.196429
0.198108
0.199769
0.201407
0.203028
0.20463
0.206212
0.207775
0.209321
0.21085
0.212362
0.213859
0.215335
0.216797
0.218237
0.219658
0.221062
0.222445
0.223809
0.225153
0.226474
0.227775
0.229052
0.230306
0.231538
0.232746
0.233929
0.235093
0.236233
0.237344
0.238428
0.23948
0.240502
0.241493
0.242452
0.243378
0.100664
0.102003
0.103352
0.10471
0.106075
0.107445
0.10882
0.110198
0.11158
0.112964
0.11435
0.115739
0.117129
0.118522
0.119918
0.121315
0.122715
0.124117
0.12552
0.126925
0.128332
0.129741
0.131151
0.132563
0.133976
0.135392
0.136809
0.138227
0.139648
0.14107
0.142494
0.14392
0.145348
0.146779
0.148211
0.149645
0.151081
0.152519
0.153959
0.155401
0.156846
0.158293
0.159742
0.161195
0.162651
0.164112
0.165577
0.167048
0.168527
0.170013
0.17151
0.173017
0.174536
0.176062
0.177692
0.179687
0.181778
0.183776
0.185704
0.187576
0.1894
0.191178
0.192927
0.194648
0.196348
0.198028
0.19969
0.201329
0.202951
0.204553
0.206134
0.207697
0.209243
0.210774
0.212286
0.213781
0.215261
0.216721
0.218162
0.219581
0.220986
0.222369
0.223734
0.225076
0.226397
0.227698
0.228974
0.230228
0.231459
0.232667
0.233852
0.235017
0.236157
0.237267
0.238353
0.239405
0.240426
0.241416
0.242376
0.243303
0.100651
0.101974
0.103314
0.104666
0.106027
0.107394
0.108767
0.110143
0.111524
0.112907
0.114292
0.115681
0.117071
0.118464
0.119859
0.121256
0.122656
0.124057
0.12546
0.126865
0.128271
0.12968
0.13109
0.132502
0.133915
0.135331
0.136748
0.138166
0.139587
0.141009
0.142434
0.14386
0.145288
0.146718
0.148151
0.149585
0.151021
0.152458
0.153898
0.155341
0.156785
0.158232
0.159682
0.161136
0.162593
0.164055
0.165522
0.166995
0.168476
0.169965
0.171464
0.172976
0.1745
0.176037
0.177614
0.179475
0.181593
0.183646
0.185602
0.187484
0.189317
0.1911
0.19285
0.194572
0.196271
0.197952
0.199611
0.201253
0.202874
0.204476
0.206057
0.207622
0.209169
0.210699
0.212211
0.213706
0.215185
0.216645
0.218086
0.219506
0.220911
0.222295
0.22366
0.225001
0.226322
0.227621
0.228897
0.230152
0.231382
0.232593
0.233776
0.23494
0.236079
0.237192
0.238277
0.239331
0.240354
0.241342
0.242304
0.24323
0.100641
0.101955
0.10329
0.104638
0.105996
0.107362
0.108733
0.110109
0.111489
0.112871
0.114256
0.115644
0.117034
0.118427
0.119822
0.121219
0.122618
0.124019
0.125421
0.126826
0.128232
0.12964
0.13105
0.132461
0.133875
0.13529
0.136707
0.138125
0.139546
0.140968
0.142392
0.143819
0.145247
0.146677
0.148109
0.149543
0.150979
0.152416
0.153856
0.155298
0.156742
0.158189
0.159639
0.161092
0.16255
0.164012
0.165479
0.166953
0.168435
0.169925
0.171426
0.17294
0.174469
0.176019
0.177606
0.179334
0.181438
0.183545
0.185527
0.187417
0.189256
0.191037
0.192789
0.194511
0.196213
0.197893
0.19955
0.201191
0.202812
0.204413
0.205995
0.20756
0.209107
0.210637
0.21215
0.213646
0.215125
0.216583
0.218023
0.219446
0.22085
0.222232
0.223597
0.224938
0.226257
0.227555
0.228832
0.230086
0.231319
0.232528
0.23371
0.23487
0.23601
0.237123
0.238205
0.239261
0.240284
0.24127
0.242229
0.243156
0.10075
0.102203
0.103631
0.105045
0.10645
0.107849
0.109243
0.110636
0.112026
0.113415
0.114803
0.116191
0.117579
0.11897
0.120368
0.121771
0.123175
0.12458
0.125985
0.127392
0.128799
0.130208
0.131618
0.133029
0.134442
0.135855
0.13727
0.138685
0.140101
0.141518
0.142933
0.144345
0.145767
0.147206
0.148647
0.150087
0.151526
0.152965
0.154405
0.155846
0.157287
0.158729
0.160172
0.161614
0.163055
0.164494
0.16593
0.167358
0.168774
0.170165
0.171574
0.173324
0.175268
0.177196
0.179092
0.180963
0.182801
0.184626
0.18643
0.188216
0.189985
0.191737
0.193472
0.195185
0.19688
0.198557
0.200212
0.20185
0.203469
0.20507
0.206655
0.208222
0.209768
0.211298
0.212809
0.214303
0.215778
0.217237
0.218677
0.220101
0.221503
0.222886
0.224248
0.225589
0.226911
0.228214
0.229491
0.23075
0.231983
0.233192
0.234374
0.235534
0.236669
0.237776
0.238858
0.239915
0.240941
0.241936
0.242893
0.24382
0.100718
0.102148
0.103567
0.104976
0.106378
0.107774
0.109168
0.110559
0.111949
0.113337
0.114726
0.116112
0.117497
0.118885
0.12029
0.121698
0.123104
0.124509
0.125915
0.127321
0.128729
0.130138
0.131548
0.13296
0.134372
0.135786
0.137201
0.138617
0.140034
0.141452
0.142869
0.144289
0.145713
0.147145
0.148581
0.150019
0.151457
0.152896
0.154336
0.155777
0.157218
0.158661
0.160103
0.161546
0.162989
0.16443
0.165869
0.167303
0.168731
0.170152
0.17158
0.173136
0.175055
0.177046
0.178979
0.180862
0.182707
0.184534
0.186346
0.188136
0.189905
0.191656
0.19339
0.195106
0.196802
0.198478
0.200136
0.201773
0.203392
0.204995
0.20658
0.208146
0.209694
0.211223
0.212734
0.214227
0.215703
0.217162
0.218603
0.220027
0.221429
0.222812
0.224176
0.225516
0.226838
0.228141
0.229419
0.230675
0.231908
0.233118
0.234302
0.235462
0.236595
0.237702
0.238785
0.239841
0.240866
0.241859
0.24282
0.24375
0.100694
0.102112
0.103522
0.104924
0.106321
0.107714
0.109105
0.110495
0.111884
0.113273
0.114661
0.11605
0.117438
0.11883
0.120229
0.121632
0.123035
0.124439
0.125845
0.127251
0.128659
0.130068
0.131478
0.13289
0.134303
0.135717
0.137132
0.138549
0.139967
0.141385
0.142805
0.144228
0.145654
0.147084
0.148518
0.149954
0.151391
0.15283
0.15427
0.155711
0.157153
0.158596
0.16004
0.161484
0.162929
0.164373
0.165817
0.167259
0.168699
0.170141
0.171591
0.173079
0.174815
0.176827
0.178814
0.180723
0.182586
0.184426
0.186247
0.188046
0.189821
0.191576
0.193313
0.19503
0.196728
0.198406
0.200063
0.201701
0.20332
0.204923
0.206507
0.208072
0.209619
0.21115
0.212662
0.214156
0.215632
0.217089
0.218531
0.219954
0.221358
0.222742
0.224104
0.225447
0.226768
0.228069
0.229348
0.230605
0.231837
0.233046
0.234227
0.235387
0.236523
0.237632
0.238713
0.239769
0.240795
0.241786
0.24275
0.243681
0.100694
0.102089
0.103485
0.104877
0.106268
0.107657
0.109045
0.110433
0.11182
0.113208
0.114597
0.115986
0.117376
0.118769
0.120167
0.121567
0.122969
0.124372
0.125777
0.127184
0.128591
0.13
0.131411
0.132822
0.134235
0.13565
0.137066
0.138483
0.139902
0.141321
0.142743
0.144167
0.145594
0.147024
0.148457
0.149892
0.151329
0.152767
0.154207
0.155648
0.157091
0.158535
0.15998
0.161426
0.162874
0.164322
0.165771
0.167221
0.168673
0.170129
0.171595
0.173078
0.174649
0.176568
0.178606
0.180553
0.182453
0.184312
0.186148
0.187955
0.189739
0.1915
0.193237
0.194955
0.196654
0.198332
0.199992
0.201629
0.203249
0.204851
0.206433
0.207998
0.209546
0.211075
0.212589
0.214083
0.21556
0.217017
0.218457
0.21988
0.221284
0.222669
0.224033
0.225375
0.226695
0.227997
0.229276
0.230532
0.231764
0.232971
0.234154
0.235315
0.236454
0.237563
0.238644
0.239698
0.24072
0.241714
0.242676
0.243606
0.100688
0.102069
0.103452
0.104835
0.106219
0.107603
0.108987
0.110373
0.111759
0.113146
0.114534
0.115923
0.117315
0.118708
0.120105
0.121504
0.122905
0.124308
0.125712
0.127118
0.128526
0.129934
0.131345
0.132757
0.13417
0.135585
0.137001
0.138419
0.139838
0.141259
0.142682
0.144106
0.145534
0.146964
0.148396
0.149831
0.151267
0.152705
0.154145
0.155587
0.15703
0.158475
0.159921
0.16137
0.16282
0.164272
0.165726
0.167183
0.168644
0.170111
0.171587
0.173071
0.174578
0.17635
0.178365
0.180363
0.182298
0.184189
0.186046
0.187863
0.189656
0.191421
0.193163
0.194882
0.19658
0.19826
0.19992
0.201559
0.203176
0.204778
0.206362
0.207926
0.209473
0.211002
0.212514
0.214009
0.215485
0.216945
0.218384
0.219806
0.221211
0.222597
0.22396
0.2253
0.226621
0.227921
0.229199
0.230457
0.231687
0.232895
0.234082
0.235245
0.236382
0.237491
0.238573
0.239626
0.240651
0.241643
0.2426
0.243525
0.100682
0.102049
0.10342
0.104795
0.106172
0.107551
0.108932
0.110315
0.111699
0.113085
0.114473
0.115862
0.117253
0.118647
0.120043
0.121441
0.122842
0.124244
0.125648
0.127054
0.128461
0.12987
0.13128
0.132692
0.134106
0.135521
0.136937
0.138355
0.139775
0.141197
0.14262
0.144045
0.145473
0.146903
0.148335
0.149769
0.151206
0.152644
0.154084
0.155526
0.156969
0.158415
0.159863
0.161313
0.162766
0.164221
0.16568
0.167143
0.168611
0.170087
0.171572
0.173067
0.174579
0.176174
0.178079
0.18013
0.182133
0.184061
0.185936
0.187771
0.189573
0.191345
0.193088
0.194808
0.196508
0.198186
0.199846
0.201485
0.203103
0.204704
0.206288
0.207852
0.209398
0.210926
0.212439
0.213934
0.21541
0.216871
0.218311
0.219734
0.221136
0.222522
0.223886
0.225228
0.226548
0.227848
0.229126
0.230382
0.231614
0.232821
0.234006
0.235169
0.236306
0.237418
0.238502
0.239556
0.240577
0.241568
0.242525
0.243449
0.100674
0.102028
0.103388
0.104754
0.106124
0.107499
0.108876
0.110257
0.11164
0.113024
0.114411
0.1158
0.117191
0.118585
0.119981
0.121378
0.122778
0.12418
0.125584
0.126989
0.128396
0.129805
0.131215
0.132627
0.134041
0.135456
0.136873
0.138291
0.139712
0.141134
0.142557
0.143983
0.145411
0.146841
0.148273
0.149708
0.151144
0.152582
0.154022
0.155464
0.156908
0.158355
0.159803
0.161255
0.16271
0.164168
0.165631
0.167098
0.168573
0.170054
0.171546
0.17305
0.174569
0.176117
0.177829
0.179875
0.181952
0.183919
0.185824
0.187678
0.18949
0.191264
0.193009
0.194728
0.196429
0.198108
0.199769
0.201407
0.203028
0.20463
0.206212
0.207775
0.209321
0.21085
0.212362
0.213859
0.215335
0.216797
0.218237
0.219658
0.221062
0.222445
0.223809
0.225153
0.226474
0.227775
0.229052
0.230306
0.231538
0.232746
0.233929
0.235093
0.236233
0.237344
0.238428
0.23948
0.240502
0.241493
0.242452
0.243378
0.100664
0.102003
0.103352
0.10471
0.106075
0.107445
0.10882
0.110198
0.11158
0.112964
0.11435
0.115739
0.117129
0.118522
0.119918
0.121315
0.122715
0.124117
0.12552
0.126925
0.128332
0.129741
0.131151
0.132563
0.133976
0.135392
0.136809
0.138227
0.139648
0.14107
0.142494
0.14392
0.145348
0.146779
0.148211
0.149645
0.151081
0.152519
0.153959
0.155401
0.156846
0.158293
0.159742
0.161195
0.162651
0.164112
0.165577
0.167048
0.168527
0.170013
0.17151
0.173017
0.174536
0.176062
0.177692
0.179687
0.181778
0.183776
0.185704
0.187576
0.1894
0.191178
0.192927
0.194648
0.196348
0.198028
0.19969
0.201329
0.202951
0.204553
0.206134
0.207697
0.209243
0.210774
0.212286
0.213781
0.215261
0.216721
0.218162
0.219581
0.220986
0.222369
0.223734
0.225076
0.226397
0.227698
0.228974
0.230228
0.231459
0.232667
0.233852
0.235017
0.236157
0.237267
0.238353
0.239405
0.240426
0.241416
0.242376
0.243303
0.100651
0.101974
0.103314
0.104666
0.106027
0.107394
0.108767
0.110143
0.111524
0.112907
0.114292
0.115681
0.117071
0.118464
0.119859
0.121256
0.122656
0.124057
0.12546
0.126865
0.128271
0.12968
0.13109
0.132502
0.133915
0.135331
0.136748
0.138166
0.139587
0.141009
0.142434
0.14386
0.145288
0.146718
0.148151
0.149585
0.151021
0.152458
0.153898
0.155341
0.156785
0.158232
0.159682
0.161136
0.162593
0.164055
0.165522
0.166995
0.168476
0.169965
0.171464
0.172976
0.1745
0.176037
0.177614
0.179475
0.181593
0.183646
0.185602
0.187484
0.189317
0.1911
0.19285
0.194572
0.196271
0.197952
0.199611
0.201253
0.202874
0.204476
0.206057
0.207622
0.209169
0.210699
0.212211
0.213706
0.215185
0.216645
0.218086
0.219506
0.220911
0.222295
0.22366
0.225001
0.226322
0.227621
0.228897
0.230152
0.231382
0.232593
0.233776
0.23494
0.236079
0.237192
0.238277
0.239331
0.240354
0.241342
0.242304
0.24323
0.100641
0.101955
0.10329
0.104638
0.105996
0.107362
0.108733
0.110109
0.111489
0.112871
0.114256
0.115644
0.117034
0.118427
0.119822
0.121219
0.122618
0.124019
0.125421
0.126826
0.128232
0.12964
0.13105
0.132461
0.133875
0.13529
0.136707
0.138125
0.139546
0.140968
0.142392
0.143819
0.145247
0.146677
0.148109
0.149543
0.150979
0.152416
0.153856
0.155298
0.156742
0.158189
0.159639
0.161092
0.16255
0.164012
0.165479
0.166953
0.168435
0.169925
0.171426
0.17294
0.174469
0.176019
0.177606
0.179334
0.181438
0.183545
0.185527
0.187417
0.189256
0.191037
0.192789
0.194511
0.196213
0.197893
0.19955
0.201191
0.202812
0.204413
0.205995
0.20756
0.209107
0.210637
0.21215
0.213646
0.215125
0.216583
0.218023
0.219446
0.22085
0.222232
0.223597
0.224938
0.226257
0.227555
0.228832
0.230086
0.231319
0.232528
0.23371
0.23487
0.23601
0.237123
0.238205
0.239261
0.240284
0.24127
0.242229
0.243156
0.10075
0.102203
0.103631
0.105045
0.10645
0.107849
0.109243
0.110636
0.112026
0.113415
0.114803
0.116191
0.117579
0.11897
0.120368
0.121771
0.123175
0.12458
0.125985
0.127392
0.128799
0.130208
0.131618
0.133029
0.134442
0.135855
0.13727
0.138685
0.140101
0.141518
0.142933
0.144345
0.145767
0.147206
0.148647
0.150087
0.151526
0.152965
0.154405
0.155846
0.157287
0.158729
0.160172
0.161614
0.163055
0.164494
0.16593
0.167358
0.168774
0.170165
0.171574
0.173324
0.175268
0.177196
0.179092
0.180963
0.182801
0.184626
0.18643
0.188216
0.189985
0.191737
0.193472
0.195185
0.19688
0.198557
0.200212
0.20185
0.203469
0.20507
0.206655
0.208222
0.209768
0.211298
0.212809
0.214303
0.215778
0.217237
0.218677
0.220101
0.221503
0.222886
0.224248
0.225589
0.226911
0.228214
0.229491
0.23075
0.231983
0.233192
0.234374
0.235534
0.236669
0.237776
0.238858
0.239915
0.240941
0.241936
0.242893
0.24382
0.100641
0.101955
0.10329
0.104638
0.105996
0.107362
0.108733
0.110109
0.111489
0.112871
0.114256
0.115644
0.117034
0.118427
0.119822
0.121219
0.122618
0.124019
0.125421
0.126826
0.128232
0.12964
0.13105
0.132461
0.133875
0.13529
0.136707
0.138125
0.139546
0.140968
0.142392
0.143819
0.145247
0.146677
0.148109
0.149543
0.150979
0.152416
0.153856
0.155298
0.156742
0.158189
0.159639
0.161092
0.16255
0.164012
0.165479
0.166953
0.168435
0.169925
0.171426
0.17294
0.174469
0.176019
0.177606
0.179334
0.181438
0.183545
0.185527
0.187417
0.189256
0.191037
0.192789
0.194511
0.196213
0.197893
0.19955
0.201191
0.202812
0.204413
0.205995
0.20756
0.209107
0.210637
0.21215
0.213646
0.215125
0.216583
0.218023
0.219446
0.22085
0.222232
0.223597
0.224938
0.226257
0.227555
0.228832
0.230086
0.231319
0.232528
0.23371
0.23487
0.23601
0.237123
0.238205
0.239261
0.240284
0.24127
0.242229
0.243156
)
;
    }
}

