/*--------------------------------*- C++ -*----------------------------------*\
| =========                 |                                                 |
| \\      /  F ield         | foam-extend: Open Source CFD                    |
|  \\    /   O peration     | Version:     5.0                                |
|   \\  /    A nd           | Web:         http://www.foam-extend.org         |
|    \\/     M anipulation  |                                                 |
\*---------------------------------------------------------------------------*/
FoamFile
{
    version     2.0;
    format      ascii;
    class       surfaceScalarField;
    location    "10000";
    object      phi;
}
// * * * * * * * * * * * * * * * * * * * * * * * * * * * * * * * * * * * * * //

dimensions      [0 3 -1 0 0 0 0];

internalField   nonuniform List<scalar> 
1890
(
-7.26412e-06
-2.34065e-07
-7.14251e-06
-1.21603e-07
-7.07028e-06
-7.22323e-08
-7.02403e-06
-4.62471e-08
-6.99364e-06
-3.03927e-08
-6.97382e-06
-1.98256e-08
-6.96036e-06
-1.34561e-08
-6.9516e-06
-8.76096e-09
-6.94563e-06
-5.96518e-09
-6.94133e-06
-4.30753e-09
-6.93794e-06
-3.38608e-09
-6.93821e-06
2.71668e-10
-6.95573e-06
1.75215e-08
-6.99357e-06
3.78356e-08
-7.01337e-06
1.97983e-08
-7.01863e-06
5.26635e-09
-7.02245e-06
3.81431e-09
-7.02594e-06
3.48944e-09
-7.03031e-06
4.36904e-09
-7.03514e-06
4.83225e-09
-7.04011e-06
4.97368e-09
-7.04529e-06
5.17989e-09
-7.05069e-06
5.39529e-09
-7.05558e-06
4.89368e-09
-7.06022e-06
4.63571e-09
-7.06459e-06
4.37656e-09
-7.068e-06
3.41051e-09
-7.0693e-06
1.30111e-09
-7.06706e-06
-2.23884e-09
-7.06054e-06
-6.52701e-09
-7.04162e-06
-1.8919e-08
-6.98948e-06
-5.21423e-08
-6.92005e-06
-6.94264e-08
-6.8786e-06
-4.14492e-08
-6.86144e-06
-1.71637e-08
-6.85574e-06
-5.69317e-09
-6.85531e-06
-4.3227e-10
-6.85744e-06
2.12742e-09
-6.86057e-06
3.13552e-09
-6.86384e-06
3.26892e-09
-6.86685e-06
3.00536e-09
-6.86876e-06
1.90682e-09
-6.86884e-06
8.57271e-11
-6.86591e-06
-2.9324e-09
-6.85777e-06
-8.14337e-09
-6.84148e-06
-1.6283e-08
-6.81087e-06
-3.06148e-08
-6.7534e-06
-5.74718e-08
-6.63785e-06
-1.15552e-07
-6.37846e-06
-2.59382e-07
-6.03051e-06
-3.47958e-07
-6.38433e-06
3.53823e-07
-6.84417e-06
4.59844e-07
-7.12787e-06
2.83698e-07
-7.27937e-06
1.515e-07
-7.38376e-06
1.04387e-07
-7.46052e-06
7.6766e-08
-7.5274e-06
6.68759e-08
-7.56556e-06
3.81583e-08
-7.58729e-06
2.1735e-08
-7.60664e-06
1.93533e-08
-7.62986e-06
2.32138e-08
-7.65645e-06
2.65937e-08
-7.67399e-06
1.75399e-08
-7.68535e-06
1.13599e-08
-7.70355e-06
1.8202e-08
-7.71397e-06
1.04205e-08
-7.73094e-06
1.69693e-08
-7.74619e-06
1.5244e-08
-7.7604e-06
1.42148e-08
-7.7729e-06
1.24996e-08
-7.79e-06
1.71007e-08
-7.80237e-06
1.2365e-08
-7.8196e-06
1.72333e-08
-7.84227e-06
2.2669e-08
-7.86914e-06
2.68706e-08
-7.89767e-06
2.85261e-08
-7.92554e-06
2.78697e-08
-7.95432e-06
2.87841e-08
-7.98433e-06
3.00029e-08
-8.02073e-06
3.64041e-08
-8.05723e-06
3.64971e-08
-8.09032e-06
3.309e-08
-8.12835e-06
3.80282e-08
-8.17324e-06
4.48901e-08
-8.22031e-06
4.70758e-08
-8.27161e-06
5.13027e-08
-8.34224e-06
7.06276e-08
-8.42445e-06
8.22039e-08
-8.50625e-06
8.18019e-08
-8.58188e-06
7.56307e-08
-8.66881e-06
8.69341e-08
-8.78241e-06
1.136e-07
-8.90562e-06
1.23204e-07
-9.03406e-06
1.28445e-07
-9.18164e-06
1.47576e-07
-9.36199e-06
1.8035e-07
-9.57702e-06
2.15031e-07
-9.78678e-06
2.09755e-07
2.13224e-07
-7.15156e-06
-2.6401e-07
-7.09261e-06
-1.80558e-07
-7.04332e-06
-1.21522e-07
-7.00692e-06
-8.26433e-08
-6.9811e-06
-5.62074e-08
-6.96354e-06
-3.73939e-08
-6.95217e-06
-2.48179e-08
-6.94382e-06
-1.71159e-08
-6.93764e-06
-1.2142e-08
-6.93231e-06
-9.64413e-09
-6.92568e-06
-1.00102e-08
-6.90963e-06
-1.57784e-08
-6.85578e-06
-3.63324e-08
-6.76038e-06
-5.75599e-08
-6.70865e-06
-3.19359e-08
-6.6976e-06
-5.78615e-09
-6.69974e-06
5.95809e-09
-6.70719e-06
1.09439e-08
-6.71652e-06
1.36933e-08
-6.72723e-06
1.55402e-08
-6.73912e-06
1.68667e-08
-6.75193e-06
1.79854e-08
-6.76546e-06
1.89295e-08
-6.78009e-06
1.95285e-08
-6.7954e-06
1.99367e-08
-6.81106e-06
2.00394e-08
-6.82707e-06
1.94256e-08
-6.84372e-06
1.79457e-08
-6.86108e-06
1.51247e-08
-6.87803e-06
1.04191e-08
-6.89856e-06
1.61832e-09
-6.93842e-06
-1.22814e-08
-6.98935e-06
-1.84971e-08
-7.02168e-06
-9.12238e-09
-7.04167e-06
2.82627e-09
-7.05835e-06
1.09837e-08
-7.07508e-06
1.62996e-08
-7.09226e-06
1.93063e-08
-7.11003e-06
2.09092e-08
-7.12785e-06
2.10925e-08
-7.14485e-06
1.99979e-08
-7.16114e-06
1.81971e-08
-7.17528e-06
1.42246e-08
-7.18681e-06
8.60411e-09
-7.19419e-06
-7.65131e-10
-7.19464e-06
-1.58328e-08
-7.18612e-06
-3.91415e-08
-7.1663e-06
-7.72895e-08
-7.14036e-06
-1.41487e-07
-7.1552e-06
-2.44548e-07
-7.14202e-06
-3.61133e-07
-6.75487e-06
-3.33282e-08
-6.89123e-06
5.96204e-07
-7.13955e-06
5.32021e-07
-7.35122e-06
3.63169e-07
-7.52359e-06
2.76751e-07
-7.6628e-06
2.15977e-07
-7.76666e-06
1.70742e-07
-7.86684e-06
1.38335e-07
-7.94886e-06
1.03758e-07
-8.01127e-06
8.17598e-08
-8.05459e-06
6.65387e-08
-8.08857e-06
6.05737e-08
-8.12903e-06
5.80003e-08
-8.16903e-06
5.13588e-08
-8.19638e-06
4.55446e-08
-8.23906e-06
5.3102e-08
-8.27232e-06
5.02333e-08
-8.30841e-06
5.13336e-08
-8.34511e-06
5.09128e-08
-8.39033e-06
5.77206e-08
-8.44426e-06
7.10263e-08
-8.51218e-06
8.02855e-08
-8.56829e-06
7.33414e-08
-8.61596e-06
7.03446e-08
-8.65662e-06
6.75253e-08
-8.69917e-06
7.1081e-08
-8.76041e-06
8.91095e-08
-8.82112e-06
8.94915e-08
-8.88879e-06
9.76682e-08
-8.94192e-06
8.95367e-08
-8.99645e-06
9.10234e-08
-9.06948e-06
1.06121e-07
-9.12664e-06
9.51891e-08
-9.18541e-06
1.03659e-07
-9.26247e-06
1.24136e-07
-9.33232e-06
1.21152e-07
-9.3842e-06
1.22511e-07
-9.43432e-06
1.32326e-07
-9.50296e-06
1.50444e-07
-9.60698e-06
1.79648e-07
-9.7101e-06
1.90051e-07
-9.7706e-06
1.741e-07
-9.81914e-06
1.71748e-07
-9.8821e-06
1.91397e-07
-9.94549e-06
2.10973e-07
-9.97803e-06
2.12885e-07
-9.99816e-06
2.35164e-07
-1.00067e-05
2.18323e-07
2.06492e-07
-6.76221e-06
-3.0923e-07
-6.74036e-06
-2.02411e-07
-6.7303e-06
-1.3158e-07
-6.72744e-06
-8.55084e-08
-6.73052e-06
-5.31215e-08
-6.73715e-06
-3.07647e-08
-6.74779e-06
-1.41788e-08
-6.76267e-06
-2.23186e-09
-6.78107e-06
6.24968e-09
-6.80225e-06
1.15359e-08
-6.82608e-06
1.38238e-08
-6.85366e-06
1.18053e-08
-6.89454e-06
4.54626e-09
-6.95196e-06
-1.46368e-10
-6.99368e-06
9.79199e-09
-7.02196e-06
2.24946e-08
-7.04717e-06
3.11631e-08
-7.07287e-06
3.66476e-08
-7.09956e-06
4.03755e-08
-7.12712e-06
4.31034e-08
-7.15576e-06
4.55069e-08
-7.18484e-06
4.7071e-08
-7.2145e-06
4.85885e-08
-7.24468e-06
4.97061e-08
-7.27485e-06
5.01087e-08
-7.30521e-06
5.03922e-08
-7.33569e-06
4.99084e-08
-7.36617e-06
4.84246e-08
-7.39702e-06
4.59798e-08
-7.42825e-06
4.16494e-08
-7.46174e-06
3.51089e-08
-7.50198e-06
2.79604e-08
-7.54564e-06
2.51564e-08
-7.58353e-06
2.87664e-08
-7.61613e-06
3.54332e-08
-7.64691e-06
4.17578e-08
-7.67694e-06
4.63293e-08
-7.70657e-06
4.89449e-08
-7.73596e-06
5.02941e-08
-7.76587e-06
5.10031e-08
-7.79557e-06
4.96956e-08
-7.82352e-06
4.61514e-08
-7.85028e-06
4.09808e-08
-7.8735e-06
3.18202e-08
-7.89262e-06
1.83561e-08
-7.90751e-06
-9.45888e-10
-7.91625e-06
-3.03933e-08
-7.92004e-06
-7.35028e-08
-7.92668e-06
-1.34851e-07
-7.95606e-06
-2.15168e-07
-8.01035e-06
-3.06836e-07
-7.76383e-06
-2.79849e-07
-7.64082e-06
4.73191e-07
-7.87406e-06
7.65257e-07
-8.10878e-06
5.97888e-07
-8.30497e-06
4.72944e-07
-8.42321e-06
3.34218e-07
-8.51081e-06
2.58339e-07
-8.56667e-06
1.94201e-07
-8.62231e-06
1.59393e-07
-8.66236e-06
1.21816e-07
-8.69171e-06
9.58819e-08
-8.72617e-06
9.50332e-08
-8.76025e-06
9.2085e-08
-8.80211e-06
9.32178e-08
-8.84967e-06
9.31055e-08
-8.87766e-06
8.10938e-08
-8.91118e-06
8.37547e-08
-8.94492e-06
8.50693e-08
-8.98847e-06
9.44624e-08
-9.03891e-06
1.08157e-07
-9.07789e-06
1.10004e-07
-9.10809e-06
1.1049e-07
-9.15833e-06
1.23584e-07
-9.20484e-06
1.1685e-07
-9.25912e-06
1.21803e-07
-9.30608e-06
1.18045e-07
-9.33717e-06
1.20196e-07
-9.37944e-06
1.31767e-07
-9.42357e-06
1.418e-07
-9.4823e-06
1.48266e-07
-9.53464e-06
1.43358e-07
-9.56645e-06
1.37936e-07
-9.62112e-06
1.49858e-07
-9.67315e-06
1.55684e-07
-9.70504e-06
1.56031e-07
-9.75085e-06
1.66958e-07
-9.80087e-06
1.72537e-07
-9.84868e-06
1.80135e-07
-9.89629e-06
1.9805e-07
-9.91193e-06
1.95287e-07
-9.91697e-06
1.95092e-07
-9.91769e-06
1.74818e-07
-9.91817e-06
1.7223e-07
-9.90992e-06
1.83142e-07
-9.89146e-06
1.92513e-07
-9.91028e-06
2.31709e-07
-9.9008e-06
2.25685e-07
-9.93605e-06
2.53574e-07
2.70438e-07
-7.21376e-06
-2.64728e-07
-7.22878e-06
-1.87388e-07
-7.23917e-06
-1.21192e-07
-7.25292e-06
-7.17595e-08
-7.27069e-06
-3.53563e-08
-7.29293e-06
-8.52339e-09
-7.31856e-06
1.14586e-08
-7.34687e-06
2.60775e-08
-7.37702e-06
3.64014e-08
-7.40846e-06
4.29683e-08
-7.44106e-06
4.64259e-08
-7.47574e-06
4.64875e-08
-7.51558e-06
4.43893e-08
-7.55982e-06
4.40905e-08
-7.59965e-06
4.96241e-08
-7.63451e-06
5.73541e-08
-7.66753e-06
6.41807e-08
-7.70071e-06
6.98236e-08
-7.73422e-06
7.38934e-08
-7.76802e-06
7.6895e-08
-7.80161e-06
7.90998e-08
-7.83564e-06
8.10977e-08
-7.86956e-06
8.25079e-08
-7.90343e-06
8.35854e-08
-7.93754e-06
8.42168e-08
-7.97155e-06
8.44023e-08
-8.00572e-06
8.40812e-08
-8.03993e-06
8.26348e-08
-8.07382e-06
7.98643e-08
-8.10844e-06
7.62724e-08
-8.14557e-06
7.22376e-08
-8.18572e-06
6.81128e-08
-8.22693e-06
6.63632e-08
-8.26655e-06
6.83847e-08
-8.30346e-06
7.2344e-08
-8.33796e-06
7.62576e-08
-8.37125e-06
7.96189e-08
-8.40438e-06
8.2077e-08
-8.4372e-06
8.31124e-08
-8.469e-06
8.28002e-08
-8.50012e-06
8.08223e-08
-8.53098e-06
7.70121e-08
-8.55995e-06
6.9949e-08
-8.58725e-06
5.9123e-08
-8.61283e-06
4.39293e-08
-8.63562e-06
2.18461e-08
-8.65735e-06
-8.66358e-09
-8.68035e-06
-5.04987e-08
-8.71072e-06
-1.04482e-07
-8.75866e-06
-1.67234e-07
-8.84225e-06
-2.23246e-07
-8.88883e-06
-2.33262e-07
-8.54711e-06
1.3147e-07
-8.52724e-06
7.45381e-07
-8.72724e-06
7.97892e-07
-8.87812e-06
6.23824e-07
-9.02603e-06
4.82125e-07
-9.10983e-06
3.42145e-07
-9.16259e-06
2.46956e-07
-9.20365e-06
2.00461e-07
-9.23751e-06
1.55677e-07
-9.27867e-06
1.37042e-07
-9.29919e-06
1.15552e-07
-9.32073e-06
1.13619e-07
-9.34569e-06
1.18184e-07
-9.36411e-06
1.11525e-07
-9.39574e-06
1.12722e-07
-9.42172e-06
1.09728e-07
-9.46379e-06
1.2714e-07
-9.4971e-06
1.27771e-07
-9.50769e-06
1.18747e-07
-9.52079e-06
1.23102e-07
-9.53867e-06
1.28374e-07
-9.55179e-06
1.36706e-07
-9.58556e-06
1.50614e-07
-9.61022e-06
1.46466e-07
-9.64934e-06
1.57168e-07
-9.66961e-06
1.40458e-07
-9.69051e-06
1.52672e-07
-9.70645e-06
1.57734e-07
-9.71017e-06
1.51995e-07
-9.72036e-06
1.53548e-07
-9.73775e-06
1.55327e-07
-9.75746e-06
1.69561e-07
-9.78061e-06
1.78838e-07
-9.81373e-06
1.89152e-07
-9.84573e-06
1.98961e-07
-9.87407e-06
2.00876e-07
-9.90856e-06
2.14625e-07
-9.9276e-06
2.17088e-07
-9.92379e-06
1.91472e-07
-9.90675e-06
1.78052e-07
-9.92587e-06
1.93938e-07
-9.95276e-06
1.99124e-07
-9.95865e-06
1.89024e-07
-9.97535e-06
2.09212e-07
-9.94332e-06
1.99677e-07
-9.93272e-06
2.1509e-07
-9.93716e-06
2.58018e-07
3.33273e-07
-7.82193e-06
-2.44223e-07
-7.83991e-06
-1.69402e-07
-7.85752e-06
-1.03589e-07
-7.87778e-06
-5.14928e-08
-7.90113e-06
-1.20123e-08
-7.92709e-06
1.74427e-08
-7.9549e-06
3.92689e-08
-7.98385e-06
5.50221e-08
-8.01363e-06
6.61839e-08
-8.04434e-06
7.36814e-08
-8.07587e-06
7.79572e-08
-8.1093e-06
7.99157e-08
-8.14578e-06
8.08715e-08
-8.18399e-06
8.22909e-08
-8.22054e-06
8.6183e-08
-8.25467e-06
9.1483e-08
-8.2868e-06
9.63093e-08
-8.31756e-06
1.00586e-07
-8.34819e-06
1.04517e-07
-8.37915e-06
1.07852e-07
-8.41043e-06
1.1038e-07
-8.44157e-06
1.12242e-07
-8.47252e-06
1.13456e-07
-8.50309e-06
1.14156e-07
-8.53372e-06
1.14844e-07
-8.56395e-06
1.14639e-07
-8.59393e-06
1.14059e-07
-8.62392e-06
1.1263e-07
-8.65453e-06
1.10469e-07
-8.68591e-06
1.07654e-07
-8.71814e-06
1.04469e-07
-8.7521e-06
1.02068e-07
-8.78649e-06
1.0076e-07
-8.81957e-06
1.01461e-07
-8.85079e-06
1.03566e-07
-8.88091e-06
1.06382e-07
-8.90991e-06
1.08611e-07
-8.93785e-06
1.10024e-07
-8.9653e-06
1.1056e-07
-8.99196e-06
1.09457e-07
-9.01833e-06
1.07197e-07
-9.04387e-06
1.02544e-07
-9.06893e-06
9.50086e-08
-9.09436e-06
8.45558e-08
-9.11981e-06
6.93746e-08
-9.14588e-06
4.79244e-08
-9.17407e-06
1.95241e-08
-9.20689e-06
-1.76761e-08
-9.24834e-06
-6.30372e-08
-9.30014e-06
-1.15433e-07
-9.35037e-06
-1.73016e-07
-9.33945e-06
-2.44181e-07
-8.93378e-06
-2.74208e-07
-8.81763e-06
6.29239e-07
-9.06033e-06
1.04059e-06
-9.27786e-06
8.41356e-07
-9.35889e-06
5.63152e-07
-9.40995e-06
3.93206e-07
-9.46605e-06
3.0305e-07
-9.48751e-06
2.21931e-07
-9.50799e-06
1.76151e-07
-9.51497e-06
1.44024e-07
-9.53801e-06
1.38586e-07
-9.55765e-06
1.33264e-07
-9.56644e-06
1.26971e-07
-9.58782e-06
1.32903e-07
-9.60975e-06
1.34659e-07
-9.63783e-06
1.37808e-07
-9.64792e-06
1.37227e-07
-9.66235e-06
1.422e-07
-9.68733e-06
1.4372e-07
-9.71726e-06
1.53034e-07
-9.74735e-06
1.58468e-07
-9.77727e-06
1.66624e-07
-9.79211e-06
1.65457e-07
-9.81403e-06
1.68384e-07
-9.82339e-06
1.66528e-07
-9.84606e-06
1.63132e-07
-9.85396e-06
1.6057e-07
-9.85699e-06
1.6076e-07
-9.88398e-06
1.78985e-07
-9.9089e-06
1.7847e-07
-9.93307e-06
1.79501e-07
-9.93284e-06
1.69329e-07
-9.92588e-06
1.71871e-07
-9.92001e-06
1.8329e-07
-9.90356e-06
1.82508e-07
-9.90032e-06
1.97629e-07
-9.87782e-06
1.92131e-07
-9.85925e-06
1.98519e-07
-9.88274e-06
2.14963e-07
-9.9259e-06
2.21206e-07
-9.95541e-06
2.23455e-07
-9.9634e-06
2.07111e-07
-9.97409e-06
1.99711e-07
-9.96427e-06
1.99394e-07
-9.99565e-06
2.3105e-07
-1.00319e-05
2.51372e-07
-1.00456e-05
2.71721e-07
2.8764e-07
-8.29842e-06
-2.26136e-07
-8.32439e-06
-1.43437e-07
-8.35224e-06
-7.57328e-08
-8.38057e-06
-2.31657e-08
-8.40895e-06
1.63669e-08
-8.43714e-06
4.56379e-08
-8.46502e-06
6.71453e-08
-8.49275e-06
8.27504e-08
-8.52024e-06
9.36755e-08
-8.54778e-06
1.01218e-07
-8.57591e-06
1.06085e-07
-8.60515e-06
1.09161e-07
-8.63547e-06
1.11192e-07
-8.6665e-06
1.13321e-07
-8.69652e-06
1.16202e-07
-8.7248e-06
1.19765e-07
-8.75226e-06
1.23763e-07
-8.77908e-06
1.27413e-07
-8.8049e-06
1.30331e-07
-8.8298e-06
1.32754e-07
-8.85415e-06
1.34727e-07
-8.8784e-06
1.36494e-07
-8.90269e-06
1.37743e-07
-8.92687e-06
1.38339e-07
-8.95068e-06
1.38656e-07
-8.97456e-06
1.38513e-07
-8.99805e-06
1.3755e-07
-9.02159e-06
1.3618e-07
-9.04559e-06
1.34461e-07
-9.07014e-06
1.32206e-07
-9.09554e-06
1.29868e-07
-9.12139e-06
1.27919e-07
-9.14737e-06
1.26744e-07
-9.17261e-06
1.26697e-07
-9.1965e-06
1.27463e-07
-9.21885e-06
1.28733e-07
-9.24034e-06
1.30101e-07
-9.26141e-06
1.31095e-07
-9.28205e-06
1.31193e-07
-9.30281e-06
1.30214e-07
-9.32338e-06
1.27772e-07
-9.34435e-06
1.2351e-07
-9.3665e-06
1.17162e-07
-9.38951e-06
1.07566e-07
-9.41428e-06
9.41467e-08
-9.44209e-06
7.57313e-08
-9.47413e-06
5.15649e-08
-9.51296e-06
2.11533e-08
-9.56068e-06
-1.5323e-08
-9.61908e-06
-5.70309e-08
-9.68938e-06
-1.02716e-07
-9.78071e-06
-1.52849e-07
-9.84921e-06
-2.05704e-07
-9.30604e-06
8.60677e-08
-9.24316e-06
9.77709e-07
-9.34426e-06
9.42456e-07
-9.4062e-06
6.25094e-07
-9.46787e-06
4.54874e-07
-9.48671e-06
3.21896e-07
-9.49341e-06
2.28624e-07
-9.49713e-06
1.79878e-07
-9.52317e-06
1.70063e-07
-9.54579e-06
1.61208e-07
-9.58005e-06
1.67518e-07
-9.61465e-06
1.61573e-07
-9.64852e-06
1.66776e-07
-9.67595e-06
1.62083e-07
-9.70323e-06
1.65087e-07
-9.71859e-06
1.52591e-07
-9.72828e-06
1.5189e-07
-9.74908e-06
1.64514e-07
-9.76204e-06
1.65993e-07
-9.77729e-06
1.73718e-07
-9.77826e-06
1.67596e-07
-9.78794e-06
1.75133e-07
-9.78664e-06
1.67087e-07
-9.78869e-06
1.68573e-07
-9.79339e-06
1.67831e-07
-9.79592e-06
1.63103e-07
-9.81513e-06
1.79975e-07
-9.81028e-06
1.74126e-07
-9.82802e-06
1.96217e-07
-9.85179e-06
2.03265e-07
-9.87403e-06
1.91567e-07
-9.88737e-06
1.85218e-07
-9.88604e-06
1.81953e-07
-9.89613e-06
1.92606e-07
-9.90514e-06
2.06636e-07
-9.92425e-06
2.11239e-07
-9.93725e-06
2.11515e-07
-9.95026e-06
2.27978e-07
-9.9552e-06
2.26146e-07
-9.94462e-06
2.12871e-07
-9.95663e-06
2.19121e-07
-9.98443e-06
2.27512e-07
-1.00319e-05
2.46867e-07
-1.00571e-05
2.56201e-07
-1.00728e-05
2.67153e-07
-1.00543e-05
2.53216e-07
2.33309e-07
-8.6163e-06
-1.98396e-07
-8.6563e-06
-1.03442e-07
-8.69709e-06
-3.49419e-08
-8.73469e-06
1.44379e-08
-8.76844e-06
5.01182e-08
-8.79892e-06
7.61112e-08
-8.8268e-06
9.50292e-08
-8.85268e-06
1.08629e-07
-8.87728e-06
1.18277e-07
-8.90113e-06
1.25066e-07
-8.92483e-06
1.29782e-07
-8.94879e-06
1.33125e-07
-8.97299e-06
1.3539e-07
-8.99719e-06
1.37526e-07
-9.02071e-06
1.39718e-07
-9.04332e-06
1.42375e-07
-9.06466e-06
1.45099e-07
-9.08487e-06
1.47626e-07
-9.10443e-06
1.49896e-07
-9.12354e-06
1.51855e-07
-9.14241e-06
1.53605e-07
-9.16102e-06
1.551e-07
-9.17932e-06
1.56042e-07
-9.19758e-06
1.56604e-07
-9.21538e-06
1.56456e-07
-9.23287e-06
1.56005e-07
-9.25053e-06
1.55202e-07
-9.26848e-06
1.54128e-07
-9.28665e-06
1.52631e-07
-9.30543e-06
1.50991e-07
-9.32469e-06
1.49124e-07
-9.34432e-06
1.47548e-07
-9.36408e-06
1.46504e-07
-9.38339e-06
1.46011e-07
-9.40193e-06
1.46004e-07
-9.41976e-06
1.4656e-07
-9.437e-06
1.47344e-07
-9.45389e-06
1.47989e-07
-9.47075e-06
1.48053e-07
-9.48778e-06
1.47236e-07
-9.50548e-06
1.45477e-07
-9.52437e-06
1.42396e-07
-9.54443e-06
1.37218e-07
-9.5665e-06
1.29638e-07
-9.59165e-06
1.19299e-07
-9.6211e-06
1.05184e-07
-9.6562e-06
8.66625e-08
-9.69895e-06
6.39012e-08
-9.75124e-06
3.69641e-08
-9.81517e-06
6.90743e-09
-9.89369e-06
-2.4199e-08
-9.99682e-06
-4.97174e-08
-1.01573e-05
-4.52722e-08
-1.0167e-05
9.58468e-08
-9.76042e-06
5.71094e-07
-9.51027e-06
6.92304e-07
-9.46652e-06
5.81347e-07
-9.46423e-06
4.5259e-07
-9.49552e-06
3.53182e-07
-9.53832e-06
2.71424e-07
-9.57418e-06
2.15735e-07
-9.60273e-06
1.9862e-07
-9.62355e-06
1.82021e-07
-9.63001e-06
1.73983e-07
-9.65062e-06
1.82187e-07
-9.66141e-06
1.77557e-07
-9.67707e-06
1.77751e-07
-9.6862e-06
1.74211e-07
-9.70071e-06
1.67097e-07
-9.71614e-06
1.67325e-07
-9.72721e-06
1.75577e-07
-9.74446e-06
1.83245e-07
-9.75221e-06
1.81475e-07
-9.75862e-06
1.73998e-07
-9.75866e-06
1.75175e-07
-9.77495e-06
1.83382e-07
-9.77469e-06
1.68306e-07
-9.78334e-06
1.76488e-07
-9.79827e-06
1.78033e-07
-9.80372e-06
1.85426e-07
-9.80992e-06
1.8032e-07
-9.79894e-06
1.85243e-07
-9.7711e-06
1.7542e-07
-9.77456e-06
1.95025e-07
-9.79432e-06
2.04982e-07
-9.81643e-06
2.04066e-07
-9.8422e-06
2.1837e-07
-9.86118e-06
2.25623e-07
-9.88567e-06
2.35721e-07
-9.91174e-06
2.37587e-07
-9.91564e-06
2.31877e-07
-9.9097e-06
2.20212e-07
-9.92468e-06
2.27848e-07
-9.94792e-06
2.4236e-07
-9.95399e-06
2.33581e-07
-9.9469e-06
2.39776e-07
-9.93855e-06
2.47852e-07
-9.93857e-06
2.6717e-07
-9.9557e-06
2.70351e-07
2.77604e-07
-9.02398e-06
-1.44701e-07
-9.08323e-06
-4.41964e-08
-9.13621e-06
1.80406e-08
-9.18049e-06
5.87184e-08
-9.21665e-06
8.62778e-08
-9.24668e-06
1.06139e-07
-9.27191e-06
1.20256e-07
-9.29379e-06
1.30518e-07
-9.31326e-06
1.37741e-07
-9.33123e-06
1.43038e-07
-9.34835e-06
1.46901e-07
-9.36506e-06
1.49832e-07
-9.3816e-06
1.51931e-07
-9.39777e-06
1.53698e-07
-9.41315e-06
1.551e-07
-9.42752e-06
1.56742e-07
-9.44094e-06
1.58526e-07
-9.45363e-06
1.60313e-07
-9.46587e-06
1.62138e-07
-9.47749e-06
1.63474e-07
-9.48885e-06
1.64967e-07
-9.5002e-06
1.66451e-07
-9.51143e-06
1.67264e-07
-9.52236e-06
1.67533e-07
-9.53322e-06
1.6732e-07
-9.54405e-06
1.66832e-07
-9.55512e-06
1.66278e-07
-9.56648e-06
1.65487e-07
-9.57817e-06
1.64317e-07
-9.59042e-06
1.63243e-07
-9.60299e-06
1.61697e-07
-9.61592e-06
1.60479e-07
-9.62892e-06
1.59507e-07
-9.64165e-06
1.58735e-07
-9.65392e-06
1.58281e-07
-9.66562e-06
1.58256e-07
-9.6771e-06
1.58827e-07
-9.68872e-06
1.59609e-07
-9.70046e-06
1.59789e-07
-9.71269e-06
1.59469e-07
-9.72595e-06
1.58735e-07
-9.7406e-06
1.57043e-07
-9.7576e-06
1.54217e-07
-9.77763e-06
1.49668e-07
-9.80137e-06
1.4304e-07
-9.83025e-06
1.34065e-07
-9.8656e-06
1.22011e-07
-9.90916e-06
1.07459e-07
-9.96263e-06
9.04385e-08
-1.00266e-05
7.0846e-08
-1.00999e-05
4.90873e-08
-1.01738e-05
2.41863e-08
-1.02079e-05
-1.11272e-08
-1.00273e-05
-8.47877e-08
-9.68321e-06
2.27036e-07
-9.80661e-06
8.15703e-07
-9.89339e-06
6.68129e-07
-9.86886e-06
4.28057e-07
-9.81073e-06
2.95057e-07
-9.78522e-06
2.45913e-07
-9.77493e-06
2.05441e-07
-9.75703e-06
1.80721e-07
-9.7491e-06
1.74091e-07
-9.74804e-06
1.72928e-07
-9.74351e-06
1.77649e-07
-9.74058e-06
1.74632e-07
-9.75385e-06
1.91024e-07
-9.76072e-06
1.81075e-07
-9.78107e-06
1.8745e-07
-9.80303e-06
1.89283e-07
-9.82388e-06
1.96426e-07
-9.82122e-06
1.80589e-07
-9.81755e-06
1.77803e-07
-9.82787e-06
1.8432e-07
-9.8348e-06
1.82099e-07
-9.84052e-06
1.891e-07
-9.8654e-06
1.93188e-07
-9.88795e-06
1.99039e-07
-9.91015e-06
2.00233e-07
-9.92092e-06
1.96192e-07
-9.93975e-06
1.99153e-07
-9.94618e-06
1.91668e-07
-9.96882e-06
1.9806e-07
-9.98117e-06
2.07377e-07
-9.98261e-06
2.06422e-07
-1.00037e-05
2.25135e-07
-1.00104e-05
2.25052e-07
-1.00109e-05
2.26149e-07
-1.00069e-05
2.31779e-07
-9.98674e-06
2.17382e-07
-9.98908e-06
2.34215e-07
-1.00177e-05
2.48803e-07
-1.00512e-05
2.61369e-07
-1.00494e-05
2.40524e-07
-1.00693e-05
2.53519e-07
-1.00742e-05
2.44723e-07
-1.00615e-05
2.35134e-07
-1.00489e-05
2.545e-07
-1.00235e-05
2.44952e-07
2.54148e-07
-1.10902e-05
-6.25885e-08
-1.11507e-05
1.63241e-08
-1.11914e-05
5.87577e-08
-1.12187e-05
8.59578e-08
-1.12363e-05
1.03927e-07
-1.12454e-05
1.1526e-07
-1.12497e-05
1.24505e-07
-1.12505e-05
1.3136e-07
-1.12478e-05
1.35049e-07
-1.12437e-05
1.38915e-07
-1.12373e-05
1.40485e-07
-1.12294e-05
1.41978e-07
-1.12214e-05
1.43867e-07
-1.12122e-05
1.44485e-07
-1.1203e-05
1.45893e-07
-1.11916e-05
1.45384e-07
-1.1179e-05
1.45927e-07
-1.11659e-05
1.4724e-07
-1.11528e-05
1.49047e-07
-1.11388e-05
1.49453e-07
-1.11248e-05
1.5097e-07
-1.11119e-05
1.5357e-07
-1.10988e-05
1.54098e-07
-1.10857e-05
1.54497e-07
-1.10722e-05
1.53809e-07
-1.10594e-05
1.54037e-07
-1.10473e-05
1.54185e-07
-1.10355e-05
1.5363e-07
-1.10242e-05
1.53028e-07
-1.10138e-05
1.52896e-07
-1.10037e-05
1.51611e-07
-1.0994e-05
1.5069e-07
-1.0984e-05
1.49511e-07
-1.09749e-05
1.49658e-07
-1.09638e-05
1.47186e-07
-1.09524e-05
1.46851e-07
-1.09413e-05
1.47748e-07
-1.09304e-05
1.48689e-07
-1.09186e-05
1.47969e-07
-1.09066e-05
1.47503e-07
-1.08956e-05
1.47785e-07
-1.0887e-05
1.48412e-07
-1.08806e-05
1.47774e-07
-1.08775e-05
1.46622e-07
-1.08783e-05
1.43801e-07
-1.08837e-05
1.39497e-07
-1.08959e-05
1.34222e-07
-1.09151e-05
1.26582e-07
-1.09421e-05
1.17437e-07
-1.09788e-05
1.07628e-07
-1.10242e-05
9.44367e-08
-1.10758e-05
7.57562e-08
-1.11244e-05
3.7544e-08
-1.11513e-05
-5.78972e-08
-1.07923e-05
-1.32022e-07
-1.06133e-05
6.36702e-07
-1.05629e-05
6.17767e-07
-1.04956e-05
3.60758e-07
-1.04318e-05
2.31232e-07
-1.03779e-05
1.92018e-07
-1.03363e-05
1.63896e-07
-1.03336e-05
1.77944e-07
-1.03271e-05
1.67602e-07
-1.03215e-05
1.67382e-07
-1.02989e-05
1.55034e-07
-1.02878e-05
1.63508e-07
-1.02689e-05
1.72184e-07
-1.02675e-05
1.79677e-07
-1.02638e-05
1.83729e-07
-1.02606e-05
1.86069e-07
-1.02473e-05
1.83144e-07
-1.02525e-05
1.85756e-07
-1.0263e-05
1.88305e-07
-1.02622e-05
1.83485e-07
-1.02614e-05
1.81348e-07
-1.02425e-05
1.70172e-07
-1.02184e-05
1.69094e-07
-1.02032e-05
1.83851e-07
-1.01923e-05
1.89313e-07
-1.01746e-05
1.78477e-07
-1.01558e-05
1.8041e-07
-1.01579e-05
1.93733e-07
-1.01508e-05
1.90977e-07
-1.01361e-05
1.92703e-07
-1.01356e-05
2.05879e-07
-1.01201e-05
2.0967e-07
-1.01023e-05
2.07258e-07
-1.00882e-05
2.11989e-07
-1.00492e-05
1.92773e-07
-1.00362e-05
2.04452e-07
-1.00132e-05
2.11162e-07
-1.00016e-05
2.37183e-07
-9.96842e-06
2.2822e-07
-9.95926e-06
2.31358e-07
-9.95699e-06
2.51253e-07
-9.94885e-06
2.36577e-07
-9.9481e-06
2.34392e-07
-9.94881e-06
2.55205e-07
-9.97979e-06
2.75927e-07
2.74362e-07
-2.67575e-05
-2.67411e-05
-2.66824e-05
-2.65964e-05
-2.64925e-05
-2.63772e-05
-2.62527e-05
-2.61214e-05
-2.59863e-05
-2.58474e-05
-2.57069e-05
-2.55649e-05
-2.54211e-05
-2.52766e-05
-2.51307e-05
-2.49853e-05
-2.48394e-05
-2.46921e-05
-2.45431e-05
-2.43936e-05
-2.42427e-05
-2.40891e-05
-2.3935e-05
-2.37805e-05
-2.36267e-05
-2.34727e-05
-2.33185e-05
-2.31648e-05
-2.30118e-05
-2.28589e-05
-2.27073e-05
-2.25566e-05
-2.24071e-05
-2.22575e-05
-2.21103e-05
-2.19634e-05
-2.18157e-05
-2.1667e-05
-2.1519e-05
-2.13715e-05
-2.12237e-05
-2.10753e-05
-2.09275e-05
-2.07809e-05
-2.06371e-05
-2.04976e-05
-2.03634e-05
-2.02368e-05
-2.01194e-05
-2.00117e-05
-1.99173e-05
-1.98416e-05
-1.9804e-05
-1.98619e-05
-1.99939e-05
-1.93572e-05
-1.87395e-05
-1.83787e-05
-1.81475e-05
-1.79555e-05
-1.77916e-05
-1.76136e-05
-1.7446e-05
-1.72786e-05
-1.71236e-05
-1.69601e-05
-1.67879e-05
-1.66082e-05
-1.64245e-05
-1.62384e-05
-1.60553e-05
-1.58695e-05
-1.56812e-05
-1.54977e-05
-1.53164e-05
-1.51462e-05
-1.49771e-05
-1.47933e-05
-1.4604e-05
-1.44255e-05
-1.42451e-05
-1.40513e-05
-1.38604e-05
-1.36677e-05
-1.34618e-05
-1.32521e-05
-1.30449e-05
-1.28329e-05
-1.26401e-05
-1.24356e-05
-1.22245e-05
-1.19873e-05
-1.17591e-05
-1.15277e-05
-1.12765e-05
-1.10399e-05
-1.08055e-05
-1.05503e-05
-1.02744e-05
)
;

boundaryField
{
    inlet
    {
        type            calculated;
        value           nonuniform List<scalar> 10(-1e-05 -1e-05 -1e-05 -1e-05 -1e-05 -1e-05 -1e-05 -1e-05 -1e-05 -1e-05);
    }
    outlet
    {
        type            calculated;
        value           nonuniform List<scalar> 10(7.49818e-06 7.18151e-06 6.80743e-06 7.16926e-06 7.80142e-06 8.28034e-06 8.58856e-06 8.97029e-06 1.10081e-05 2.66949e-05);
    }
    walls
    {
        type            calculated;
        value           uniform 0;
    }
}


// ************************************************************************* //
