/*--------------------------------*- C++ -*----------------------------------*\
| =========                 |                                                 |
| \\      /  F ield         | foam-extend: Open Source CFD                    |
|  \\    /   O peration     | Version:     5.0                                |
|   \\  /    A nd           | Web:         http://www.foam-extend.org         |
|    \\/     M anipulation  |                                                 |
\*---------------------------------------------------------------------------*/
FoamFile
{
    version     2.0;
    format      ascii;
    class       surfaceScalarField;
    location    "10000";
    object      phi.water;
}
// * * * * * * * * * * * * * * * * * * * * * * * * * * * * * * * * * * * * * //

dimensions      [0 3 -1 0 0 0 0];

internalField   nonuniform List<scalar> 
1890
(
0
0
0
0
0
0
0
0
0
0
0
0
0
0
0
0
0
0
0
0
0
0
0
0
0
0
0
0
0
0
0
0
0
0
0
0
0
0
0
0
0
0
0
0
0
0
0
0
0
0
0
0
0
0
0
0
0
0
0
0
0
0
0
0
0
0
0
0
0
0
0
0
0
0
0
0
0
0
0
0
0
0
0
0
0
0
0
0
0
0
0
0
9.60013e-30
0
-1.30965e-12
-3.71697e-31
-4.19782e-08
3.98059e-14
-3.66214e-06
3.86609e-10
-3.13006e-05
-1.47394e-10
-4.40993e-05
3.03001e-06
-4.70727e-05
4.11422e-06
-5.37645e-05
2.33778e-06
-5.23366e-05
1.21275e-06
-5.62047e-05
6.30733e-07
-5.76207e-05
5.05492e-07
-5.50231e-05
3.4923e-07
-6.16367e-05
1.18966e-07
-6.34621e-05
-2.33175e-08
-5.96332e-05
-7.28792e-08
-4.82332e-05
-6.49952e-08
-4.71894e-05
-3.94668e-08
-5.46001e-05
-1.12176e-07
-4.90669e-05
-1.65916e-07
-4.90153e-05
-1.36671e-07
-5.12144e-05
-1.85425e-07
-5.10768e-05
-1.75895e-07
-5.50508e-05
-2.11219e-07
-5.63681e-05
-2.34943e-07
-5.16225e-05
-2.51529e-07
-5.2816e-05
-2.10105e-07
-5.54076e-05
-2.71644e-07
-5.0766e-05
-2.70541e-07
-5.04672e-05
-2.77771e-07
-5.15316e-05
-2.86187e-07
-5.2628e-05
-3.06642e-07
-5.53589e-05
-2.9487e-07
-5.04747e-05
-3.65397e-07
-4.637e-05
-2.86528e-07
-4.83859e-05
-3.59986e-07
-4.79604e-05
-3.72494e-07
-5.15563e-05
-3.71689e-07
-5.40934e-05
-5.12466e-07
-4.65092e-05
-4.95449e-07
-4.72711e-05
-3.89447e-07
-4.42462e-05
-5.30648e-07
-3.88159e-05
-3.98746e-07
-3.92029e-05
-4.31171e-07
-4.49525e-05
-4.14998e-07
-4.80779e-05
-5.84546e-07
-3.92559e-05
-5.32245e-07
-3.96016e-05
-5.37926e-07
-4.4428e-05
-6.81448e-07
-4.12288e-05
-7.17743e-07
-3.64528e-05
-6.46642e-07
-3.39787e-05
-6.60457e-07
-3.85551e-05
-6.50903e-07
-4.32301e-05
-1.04138e-06
-1.05796e-06
0
0
0
0
0
0
0
0
0
0
0
0
0
0
0
0
0
0
0
0
0
0
0
0
0
0
0
0
0
0
0
0
0
0
0
0
0
0
0
0
0
0
0
0
0
0
0
0
0
0
0
0
0
0
0
0
0
0
0
0
0
0
0
0
0
0
0
0
0
0
0
0
0
0
0
0
0
0
0
0
0
0
0
0
0
0
0
0
0
0
0
0
0
0
7.32138e-26
0
-1.2006e-11
-1.59287e-27
-9.30277e-08
8.94286e-14
-6.19009e-06
-5.28703e-12
-4.75524e-05
1.91416e-07
-3.96224e-05
4.33946e-06
-3.95001e-05
2.50476e-06
-4.00617e-05
1.66435e-06
-4.25706e-05
1.08299e-06
-4.83506e-05
8.9282e-07
-4.38688e-05
6.20714e-07
-3.8798e-05
3.02806e-07
-4.24897e-05
7.61444e-08
-5.18861e-05
-7.44235e-08
-5.63994e-05
-2.25296e-07
-5.15527e-05
-2.63201e-07
-4.63066e-05
-2.98026e-07
-5.13855e-05
-3.04261e-07
-4.83102e-05
-4.08122e-07
-4.70705e-05
-3.63411e-07
-5.52275e-05
-4.67768e-07
-5.33752e-05
-4.89436e-07
-4.88019e-05
-4.6783e-07
-4.38836e-05
-4.06634e-07
-3.98231e-05
-4.0296e-07
-4.06596e-05
-3.76075e-07
-4.80904e-05
-3.95929e-07
-5.52483e-05
-5.09102e-07
-5.85096e-05
-5.59836e-07
-4.97995e-05
-5.94204e-07
-4.69212e-05
-5.60601e-07
-4.20498e-05
-5.59554e-07
-4.29455e-05
-4.4362e-07
-5.00108e-05
-5.8717e-07
-4.01718e-05
-5.92115e-07
-4.19766e-05
-5.61758e-07
-5.19097e-05
-6.78833e-07
-4.11606e-05
-7.40703e-07
-3.80634e-05
-5.90443e-07
-4.37681e-05
-6.73163e-07
-4.70813e-05
-6.97433e-07
-4.15893e-05
-8.04302e-07
-3.47707e-05
-6.26955e-07
-3.29987e-05
-6.9297e-07
-3.74933e-05
-6.45911e-07
-4.72926e-05
-8.6159e-07
-4.51983e-05
-1.01956e-06
-3.87714e-05
-9.38474e-07
-3.92851e-05
-8.42891e-07
-4.32399e-05
-8.4943e-07
-4.51906e-05
-1.04699e-06
-4.16519e-05
-1.0872e-06
-1.05594e-06
0
0
0
0
0
0
0
0
0
0
0
0
0
0
0
0
0
0
0
0
0
0
0
0
0
0
0
0
0
0
0
0
0
0
0
0
0
0
0
0
0
0
0
0
0
0
0
0
0
0
0
0
0
0
0
0
0
0
0
0
0
0
0
0
0
0
0
0
0
0
0
0
0
0
0
0
0
0
0
0
0
0
0
0
0
0
0
0
0
0
0
0
0
0
0
0
2.49239e-16
0
-3.10163e-09
-2.09078e-18
-1.47551e-06
-5.89694e-17
-1.90112e-05
4.39998e-10
-4.0204e-05
1.50035e-06
-3.95724e-05
3.54412e-06
-3.91515e-05
2.37404e-06
-4.64417e-05
1.92037e-06
-5.64058e-05
1.17022e-06
-5.83442e-05
7.95609e-07
-4.99465e-05
2.65992e-07
-4.87479e-05
-8.91653e-09
-5.63745e-05
-2.76373e-07
-5.2762e-05
-4.35919e-07
-4.97017e-05
-5.25783e-07
-4.44478e-05
-5.69545e-07
-3.85221e-05
-4.75336e-07
-4.2259e-05
-5.2206e-07
-4.65538e-05
-5.71332e-07
-4.64148e-05
-6.52018e-07
-4.27568e-05
-6.20664e-07
-3.7115e-05
-5.62556e-07
-3.96467e-05
-5.79184e-07
-4.84542e-05
-6.54779e-07
-4.21338e-05
-6.98177e-07
-3.74245e-05
-5.73623e-07
-3.8095e-05
-5.53352e-07
-3.71561e-05
-6.00346e-07
-4.50309e-05
-5.69677e-07
-4.72295e-05
-8.45484e-07
-3.92236e-05
-6.8672e-07
-3.56434e-05
-6.18743e-07
-3.40382e-05
-6.32532e-07
-3.87356e-05
-6.00022e-07
-3.83902e-05
-7.25857e-07
-3.57208e-05
-6.28523e-07
-3.99449e-05
-6.92735e-07
-3.86539e-05
-6.8551e-07
-3.42467e-05
-6.61845e-07
-3.47927e-05
-6.15349e-07
-3.44947e-05
-6.77023e-07
-3.95649e-05
-6.32629e-07
-4.75874e-05
-9.77514e-07
-4.18729e-05
-9.87108e-07
-4.02971e-05
-8.32872e-07
-4.20795e-05
-9.48046e-07
-4.15196e-05
-1.08512e-06
-3.49148e-05
-9.52105e-07
-3.63023e-05
-9.05916e-07
-3.85859e-05
-1.07658e-06
-3.26709e-05
-9.3273e-07
-7.71958e-07
0
0
0
0
0
0
0
0
0
0
0
0
0
0
0
0
0
0
0
0
0
0
0
0
0
0
0
0
0
0
0
0
0
0
0
0
0
0
0
0
0
0
0
0
0
0
0
0
0
0
0
0
0
0
0
0
0
0
0
0
0
0
0
0
0
0
0
0
0
0
0
0
0
0
0
0
0
0
0
0
0
0
0
0
0
0
0
0
0
0
0
0
0
0
0
0
6.82741e-30
0
-1.91438e-12
-8.32196e-32
-2.67844e-08
1.09989e-14
-3.99271e-06
1.04486e-10
-2.62716e-05
1.21061e-07
-3.87243e-05
1.76169e-06
-4.39035e-05
2.99996e-06
-4.28413e-05
2.48307e-06
-4.62456e-05
1.51206e-06
-5.13474e-05
9.69522e-07
-4.86567e-05
2.45219e-07
-5.00465e-05
-4.35042e-08
-4.47387e-05
-2.98178e-07
-4.74172e-05
-4.18735e-07
-5.47781e-05
-5.74947e-07
-4.84351e-05
-6.376e-07
-4.84426e-05
-6.21681e-07
-4.32818e-05
-6.55596e-07
-4.12529e-05
-5.40839e-07
-4.20985e-05
-6.11874e-07
-3.91946e-05
-6.38853e-07
-4.67628e-05
-5.978e-07
-5.39751e-05
-6.89008e-07
-4.90372e-05
-7.15448e-07
-5.04025e-05
-6.62289e-07
-4.35294e-05
-7.43428e-07
-4.03587e-05
-6.14902e-07
-3.91839e-05
-6.64808e-07
-4.01435e-05
-6.43191e-07
-4.67362e-05
-7.10567e-07
-4.40464e-05
-8.33165e-07
-4.63782e-05
-7.80897e-07
-4.35644e-05
-7.84125e-07
-3.73163e-05
-6.94087e-07
-3.7118e-05
-6.81256e-07
-3.87012e-05
-7.9855e-07
-3.58489e-05
-8.25174e-07
-3.41599e-05
-6.67048e-07
-3.3941e-05
-7.38859e-07
-3.30228e-05
-6.03423e-07
-3.50422e-05
-6.859e-07
-4.13554e-05
-7.33111e-07
-4.88558e-05
-8.37432e-07
-3.84105e-05
-9.00317e-07
-3.23555e-05
-7.28147e-07
-3.68397e-05
-8.50365e-07
-3.63531e-05
-9.63227e-07
-3.89323e-05
-9.0412e-07
-4.28123e-05
-1.04889e-06
-3.98092e-05
-9.87038e-07
-3.51236e-05
-1.01826e-06
-7.15532e-07
0
0
0
0
0
0
0
0
0
0
0
0
0
0
0
0
0
0
0
0
0
0
0
0
0
0
0
0
0
0
0
0
0
0
0
0
0
0
0
0
0
0
0
0
0
0
0
0
0
0
0
0
0
0
0
0
0
0
0
0
0
0
0
0
0
0
0
0
0
0
0
0
0
0
0
0
0
0
0
0
0
0
0
0
0
0
0
0
0
0
0
0
0
0
0
0
0
0
1.4788e-16
0
-2.91819e-09
-1.52978e-18
-1.031e-06
7.99074e-12
-2.52989e-05
-4.32442e-11
-4.54878e-05
2.21062e-06
-4.19906e-05
4.76646e-06
-4.57342e-05
3.41447e-06
-5.18005e-05
2.06442e-06
-4.36488e-05
9.88122e-07
-4.55201e-05
3.83853e-07
-4.91119e-05
-6.63867e-09
-4.7921e-05
-2.65961e-07
-4.64064e-05
-4.36136e-07
-4.40883e-05
-4.74836e-07
-4.92268e-05
-5.32893e-07
-4.63521e-05
-5.85429e-07
-3.97635e-05
-5.45745e-07
-3.6294e-05
-5.09809e-07
-4.28725e-05
-4.95516e-07
-4.88721e-05
-7.47834e-07
-3.95224e-05
-6.638e-07
-3.77337e-05
-5.30061e-07
-3.85394e-05
-6.19587e-07
-3.94312e-05
-5.53325e-07
-4.46878e-05
-6.59966e-07
-4.33397e-05
-6.58308e-07
-4.57293e-05
-6.12724e-07
-4.30633e-05
-7.98607e-07
-4.3091e-05
-5.75113e-07
-5.2477e-05
-8.44461e-07
-4.37755e-05
-7.08187e-07
-3.76096e-05
-7.09979e-07
-3.58141e-05
-5.66059e-07
-4.11971e-05
-5.68869e-07
-5.14064e-05
-7.50709e-07
-4.79564e-05
-8.54433e-07
-4.76927e-05
-8.05969e-07
-4.21355e-05
-8.31281e-07
-4.08164e-05
-6.65348e-07
-4.79154e-05
-8.0112e-07
-3.99674e-05
-8.76606e-07
-3.28485e-05
-7.32248e-07
-3.19652e-05
-6.81811e-07
-3.54684e-05
-7.32496e-07
-3.67908e-05
-8.36982e-07
-3.73575e-05
-8.16003e-07
-3.58676e-05
-8.93467e-07
-3.30136e-05
-8.52241e-07
-3.68616e-05
-8.4398e-07
-4.30004e-05
-1.02855e-06
-1.0868e-06
0
0
0
0
0
0
0
0
0
0
0
0
0
0
0
0
0
0
0
0
0
0
0
0
0
0
0
0
0
0
0
0
0
0
0
0
0
0
0
0
0
0
0
0
0
0
0
0
0
0
0
0
0
0
0
0
0
0
0
0
0
0
0
0
0
0
0
0
0
0
0
0
0
0
0
0
0
0
0
0
0
0
0
0
0
0
0
0
0
0
0
0
0
0
0
0
0
0
5.64734e-31
0
-6.84105e-13
-9.65118e-33
-3.26162e-08
8.09232e-15
-4.45872e-06
2.05833e-10
-2.83715e-05
1.52481e-07
-5.13763e-05
3.24138e-06
-4.49557e-05
4.76324e-06
-4.09978e-05
1.91134e-06
-4.33681e-05
1.13055e-06
-4.70053e-05
4.69546e-07
-4.69568e-05
-2.06133e-08
-4.10924e-05
-2.765e-07
-3.93381e-05
-3.46548e-07
-4.02657e-05
-4.21153e-07
-3.75954e-05
-4.88242e-07
-3.68658e-05
-4.09036e-07
-3.60824e-05
-4.7931e-07
-3.46217e-05
-4.13389e-07
-3.96027e-05
-4.6712e-07
-4.60536e-05
-5.80189e-07
-3.93897e-05
-5.87387e-07
-3.94569e-05
-4.9233e-07
-4.23128e-05
-5.75544e-07
-4.58387e-05
-5.60712e-07
-4.82773e-05
-6.8763e-07
-4.43179e-05
-6.71936e-07
-4.80558e-05
-5.99481e-07
-4.28058e-05
-8.13473e-07
-4.16538e-05
-5.87615e-07
-4.0368e-05
-7.02172e-07
-4.24848e-05
-6.38389e-07
-4.10615e-05
-7.48783e-07
-3.33155e-05
-5.92992e-07
-3.38931e-05
-6.06606e-07
-3.68932e-05
-5.62574e-07
-4.15144e-05
-6.44278e-07
-4.016e-05
-6.93311e-07
-3.71001e-05
-6.33165e-07
-3.59829e-05
-6.36045e-07
-3.75149e-05
-6.13917e-07
-4.1239e-05
-6.82985e-07
-4.09218e-05
-8.06467e-07
-4.0588e-05
-7.71122e-07
-3.80698e-05
-7.68798e-07
-3.3428e-05
-7.45017e-07
-3.09766e-05
-7.16214e-07
-3.35339e-05
-7.04005e-07
-3.73867e-05
-8.1813e-07
-4.12194e-05
-8.17392e-07
-4.58019e-05
-1.01908e-06
-1.12264e-06
0
0
0
0
0
0
0
0
0
0
0
0
0
0
0
0
0
0
0
0
0
0
0
0
0
0
0
0
0
0
0
0
0
0
0
0
0
0
0
0
0
0
0
0
0
0
0
0
0
0
0
0
0
0
0
0
0
0
0
0
0
0
0
0
0
0
0
0
0
0
0
0
0
0
0
0
0
0
0
0
0
0
0
0
0
0
0
0
0
0
0
0
0
0
0
0
0
0
0
0
3.93403e-24
0
-2.77285e-11
-8.54379e-26
-1.85375e-07
2.86483e-14
-1.17371e-05
9.46288e-10
-3.18394e-05
2.42008e-07
-4.04403e-05
7.91343e-07
-4.4013e-05
1.14655e-06
-4.36459e-05
9.68586e-07
-3.88988e-05
4.62063e-07
-3.57785e-05
7.43226e-08
-3.5979e-05
-1.42663e-07
-3.75928e-05
-2.77935e-07
-4.48178e-05
-3.3267e-07
-4.33905e-05
-4.98636e-07
-4.1454e-05
-3.81245e-07
-4.02812e-05
-4.94606e-07
-3.85417e-05
-3.57025e-07
-4.12968e-05
-4.88137e-07
-3.84199e-05
-4.507e-07
-3.84087e-05
-4.47565e-07
-3.92518e-05
-4.6566e-07
-4.22431e-05
-5.40963e-07
-4.43983e-05
-6.10132e-07
-4.82587e-05
-5.45488e-07
-4.29788e-05
-6.98529e-07
-4.30503e-05
-5.39836e-07
-4.39324e-05
-6.45205e-07
-3.69053e-05
-5.48056e-07
-4.15399e-05
-5.47462e-07
-4.23966e-05
-7.59172e-07
-4.2301e-05
-5.8371e-07
-4.99016e-05
-7.82995e-07
-4.16745e-05
-7.20578e-07
-3.43125e-05
-6.24266e-07
-3.34231e-05
-6.53436e-07
-3.25737e-05
-5.59798e-07
-3.38163e-05
-6.00045e-07
-3.43322e-05
-6.234e-07
-3.33888e-05
-6.07959e-07
-3.9166e-05
-6.38681e-07
-4.44764e-05
-8.5823e-07
-3.65643e-05
-7.30781e-07
-3.30629e-05
-6.41388e-07
-3.34733e-05
-7.60982e-07
-3.46487e-05
-6.96111e-07
-3.67642e-05
-8.26631e-07
-3.71683e-05
-9.09969e-07
-3.6617e-05
-9.32795e-07
-3.51314e-05
-9.66714e-07
-9.10525e-07
0
0
0
0
0
0
0
0
0
0
0
0
0
0
0
0
0
0
0
0
0
0
0
0
0
0
0
0
0
0
0
0
0
0
0
0
0
0
0
0
0
0
0
0
0
0
0
0
0
0
0
0
0
0
0
0
0
0
0
0
0
0
0
0
0
0
0
0
0
0
0
0
0
0
0
0
0
0
0
0
0
0
0
0
0
0
0
0
0
0
0
0
0
0
0
0
0
0
0
0
6.56927e-25
0
-2.02459e-11
-1.80327e-26
-1.07755e-07
4.82476e-13
-7.3478e-06
1.72866e-09
-2.9936e-05
2.79174e-07
-4.09254e-05
2.20404e-06
-4.51524e-05
2.26828e-06
-5.1972e-05
1.19856e-06
-4.83392e-05
4.44738e-07
-3.83149e-05
1.00981e-07
-4.04441e-05
-9.11636e-08
-4.43952e-05
-2.46862e-07
-4.44568e-05
-2.89811e-07
-4.8269e-05
-3.7121e-07
-4.96962e-05
-4.16535e-07
-4.19561e-05
-3.99956e-07
-4.00636e-05
-3.28843e-07
-3.9937e-05
-3.61281e-07
-3.49127e-05
-3.31349e-07
-3.57001e-05
-3.09652e-07
-4.43942e-05
-3.77918e-07
-5.45067e-05
-4.59317e-07
-4.52933e-05
-5.10072e-07
-4.2948e-05
-4.55213e-07
-4.78475e-05
-5.34232e-07
-4.05589e-05
-6.06372e-07
-3.60822e-05
-4.70471e-07
-3.60037e-05
-4.61465e-07
-4.26064e-05
-4.40413e-07
-4.23447e-05
-6.71414e-07
-4.12814e-05
-4.87771e-07
-3.997e-05
-6.04471e-07
-3.71629e-05
-4.77023e-07
-4.53926e-05
-5.89542e-07
-4.04504e-05
-6.00465e-07
-3.83947e-05
-5.01515e-07
-4.33822e-05
-5.92073e-07
-4.43226e-05
-5.98987e-07
-4.66504e-05
-7.37594e-07
-4.92084e-05
-6.66582e-07
-4.08954e-05
-8.50503e-07
-3.34687e-05
-5.62825e-07
-3.83626e-05
-5.7469e-07
-3.78205e-05
-7.11829e-07
-3.48389e-05
-5.96098e-07
-4.00594e-05
-7.39362e-07
-4.43852e-05
-8.34953e-07
-4.66009e-05
-1.02035e-06
-4.29173e-05
-9.86645e-07
-1.01544e-06
0
0
0
0
0
0
0
0
0
0
0
0
0
0
0
0
0
0
0
0
0
0
0
0
0
0
0
0
0
0
0
0
0
0
0
0
0
0
0
0
0
0
0
0
0
0
0
0
0
0
0
0
0
0
0
0
0
0
0
0
0
0
0
0
0
0
0
0
0
0
0
0
0
0
0
0
0
0
0
0
0
0
0
0
0
0
0
0
0
0
0
0
0
0
0
0
0
0
0
0
0
0
6.17342e-16
0
-4.53194e-09
-1.25578e-17
-1.63268e-06
5.36441e-11
-2.38662e-05
8.37123e-09
-3.94944e-05
1.44532e-06
-4.02111e-05
1.9522e-06
-3.98148e-05
9.29263e-07
-4.16612e-05
2.14945e-07
-3.8257e-05
-2.76243e-08
-3.42782e-05
-1.44735e-07
-3.43001e-05
-1.65447e-07
-3.67639e-05
-1.91844e-07
-4.39252e-05
-2.56176e-07
-4.26106e-05
-3.22472e-07
-4.27765e-05
-2.7478e-07
-4.04396e-05
-3.2943e-07
-3.59935e-05
-2.35474e-07
-3.51727e-05
-2.48262e-07
-3.96798e-05
-2.19264e-07
-4.05196e-05
-3.29778e-07
-3.52434e-05
-2.55109e-07
-3.78107e-05
-2.75262e-07
-3.96853e-05
-3.0021e-07
-4.53984e-05
-3.31728e-07
-4.79852e-05
-4.24261e-07
-4.27419e-05
-3.76888e-07
-3.94643e-05
-3.83788e-07
-4.26461e-05
-3.56834e-07
-4.36445e-05
-4.58969e-07
-3.73438e-05
-3.96396e-07
-3.4055e-05
-4.02339e-07
-3.63668e-05
-3.52532e-07
-3.70142e-05
-4.4372e-07
-3.61056e-05
-3.93407e-07
-3.85986e-05
-4.32261e-07
-3.7465e-05
-4.4546e-07
-4.25049e-05
-4.76403e-07
-3.88476e-05
-6.031e-07
-3.87679e-05
-4.7596e-07
-4.15525e-05
-6.94784e-07
-3.81891e-05
-5.5953e-07
-3.59242e-05
-6.02053e-07
-3.17791e-05
-5.35286e-07
-3.21521e-05
-5.76325e-07
-3.17492e-05
-6.15396e-07
-3.5299e-05
-6.48261e-07
-3.65635e-05
-9.28349e-07
-3.43489e-05
-7.91866e-07
-8.7948e-07
0
0
0
0
0
0
0
0
0
0
0
0
0
0
0
0
0
0
0
0
0
0
0
0
0
0
0
0
0
0
0
0
0
0
0
0
0
0
0
0
0
0
0
0
0
0
0
0
0
0
0
1.05627e-28
-2.58596e-12
-3.63719e-08
-4.05083e-06
-3.93081e-05
-3.72319e-05
-3.51637e-05
-3.82299e-05
-3.29143e-05
-3.44312e-05
-3.78323e-05
-3.81229e-05
-3.80348e-05
-3.43817e-05
-3.95727e-05
-4.20427e-05
-4.08874e-05
-3.97051e-05
-4.10152e-05
-4.23012e-05
-4.24215e-05
-4.11406e-05
-3.89209e-05
-3.687e-05
-3.1127e-05
-3.27927e-05
-3.824e-05
-3.62796e-05
-3.21619e-05
-3.47292e-05
-3.38122e-05
-3.09343e-05
-3.4813e-05
-3.66304e-05
-3.47947e-05
-3.57481e-05
-3.39428e-05
-3.03599e-05
-3.40949e-05
-4.2327e-05
-3.97816e-05
-3.3179e-05
-3.57226e-05
-3.54756e-05
-3.07147e-05
-3.6331e-05
-4.41678e-05
-4.00802e-05
)
;

boundaryField
{
    inlet
    {
        type            fixedValue;
        value           nonuniform List<scalar> 10(-5e-05 -5e-05 -5e-05 -5e-05 -5e-05 -5e-05 -5e-05 -5e-05 -5e-05 -5e-05);
    }
    outlet
    {
        type            calculated;
        value           uniform 0;
    }
    walls
    {
        type            fixedValue;
        value           uniform 0;
    }
}


// ************************************************************************* //
