/*--------------------------------*- C++ -*----------------------------------*\
| =========                 |                                                 |
| \\      /  F ield         | foam-extend: Open Source CFD                    |
|  \\    /   O peration     | Version:     5.0                                |
|   \\  /    A nd           | Web:         http://www.foam-extend.org         |
|    \\/     M anipulation  |                                                 |
\*---------------------------------------------------------------------------*/
FoamFile
{
    version     2.0;
    format      ascii;
    class       surfaceScalarField;
    location    "10000";
    object      phi.gas;
}
// * * * * * * * * * * * * * * * * * * * * * * * * * * * * * * * * * * * * * //

dimensions      [0 3 -1 0 0 0 0];

internalField   nonuniform List<scalar> 
1890
(
1.33859e-20
-5.09039e-13
7.57291e-17
-6.07361e-12
1.25559e-15
-4.31313e-11
6.61542e-15
-7.3649e-11
5.38715e-15
-7.44188e-11
-2.53439e-12
-1.17868e-10
-7.09168e-13
-3.55102e-10
-4.80555e-12
-2.0372e-10
-6.88227e-12
-3.59596e-10
-5.56025e-12
-4.78842e-10
-6.95228e-12
-6.86082e-10
-8.05262e-12
-6.46379e-10
-1.31737e-10
-7.82114e-10
-3.53485e-09
-7.50002e-09
-3.88381e-08
-3.01319e-08
-7.67568e-08
-3.6851e-08
-4.92355e-08
-6.91342e-08
-1.05043e-07
-5.41988e-08
-1.02324e-07
-5.89684e-08
-1.2272e-07
-5.22714e-08
-2.30097e-07
-6.54118e-08
-3.0749e-07
-5.74034e-08
-2.63017e-07
-7.24782e-08
-4.11995e-07
-6.6433e-08
-5.18281e-07
-6.78981e-08
-4.72735e-07
-6.59656e-08
-4.07158e-07
-6.43426e-08
-4.85441e-07
-7.67479e-08
-1.05104e-06
-6.72792e-08
-1.08852e-06
-9.52625e-08
-1.1511e-06
-6.38746e-08
-1.16603e-05
-9.21265e-08
-2.97669e-05
-2.18488e-08
-3.58686e-05
3.64697e-07
-3.20367e-05
7.87201e-07
-2.80836e-05
7.5941e-07
-2.79292e-05
9.41922e-07
-3.43001e-05
8.60058e-07
-3.7827e-05
1.04868e-06
-3.15854e-05
1.10664e-06
-3.22787e-05
9.1192e-07
-3.29022e-05
1.11624e-06
-3.61357e-05
1.00161e-06
-3.77079e-05
1.14158e-06
-3.42722e-05
1.21816e-06
-4.26041e-05
1.12479e-06
-4.56884e-05
1.45873e-06
-3.86818e-05
1.26108e-06
-4.20418e-05
9.56483e-07
-4.29744e-05
2.39332e-07
-3.85158e-05
-3.85175e-07
-3.82388e-05
2.99444e-06
-4.17789e-05
3.76019e-06
-5.02616e-05
2.13415e-06
-4.9933e-05
1.89047e-06
-5.42681e-05
1.58614e-06
-5.64987e-05
1.87536e-06
-5.47823e-05
1.82767e-06
-6.23774e-05
1.51031e-06
-6.53499e-05
1.50939e-06
-6.25007e-05
1.75989e-06
-5.14257e-05
2.03291e-06
-5.12584e-05
1.80372e-06
-6.04181e-05
1.85591e-06
-5.52879e-05
1.78952e-06
-5.63886e-05
2.08242e-06
-6.00377e-05
1.77494e-06
-6.11827e-05
2.2049e-06
-6.73177e-05
2.3172e-06
-7.04508e-05
2.37451e-06
-6.5871e-05
2.23841e-06
-6.90515e-05
2.09659e-06
-7.39886e-05
2.1378e-06
-6.94516e-05
2.38614e-06
-7.07128e-05
2.75349e-06
-7.40036e-05
3.07568e-06
-7.7453e-05
3.25127e-06
-8.36085e-05
2.81077e-06
-7.80534e-05
3.35874e-06
-7.37393e-05
2.52658e-06
-7.89972e-05
3.5117e-06
-8.04661e-05
3.38125e-06
-8.90503e-05
2.89757e-06
-9.60451e-05
4.15916e-06
-8.49499e-05
4.24655e-06
-8.92454e-05
3.17413e-06
-8.57937e-05
4.25022e-06
-7.79094e-05
4.03327e-06
-8.11875e-05
4.72245e-06
-9.65435e-05
4.00726e-06
-0.000106383
4.61299e-06
-9.00743e-05
4.37e-06
-9.45777e-05
5.39632e-06
-0.000110129
6.66271e-06
-0.000106116
6.46882e-06
-9.78767e-05
6.06209e-06
-9.52697e-05
7.00777e-06
-0.000113636
7.633e-06
-0.000132939
9.83425e-06
8.77953e-06
-8.54e-09
-1.02176e-08
-5.15266e-08
-3.68502e-08
-6.933e-08
-7.96107e-08
-6.56257e-08
-7.70467e-08
-1.02861e-07
-5.74285e-08
-2.88769e-07
-6.82443e-08
-1.62784e-07
-7.00915e-08
-2.80564e-07
-7.55705e-08
-3.7002e-07
-7.75057e-08
-5.18652e-07
-9.34201e-08
-4.94035e-07
-7.40562e-08
-6.58998e-07
-6.96841e-08
-9.15664e-06
-1.00172e-07
-3.45644e-05
-6.25028e-08
-3.65828e-05
3.45233e-07
-4.40522e-05
8.62105e-07
-4.52751e-05
1.40833e-06
-4.19929e-05
1.42899e-06
-4.08326e-05
1.48535e-06
-4.30306e-05
1.37111e-06
-4.51484e-05
1.6842e-06
-4.76379e-05
1.53592e-06
-5.14527e-05
1.65746e-06
-5.00201e-05
1.64425e-06
-4.99558e-05
1.55183e-06
-4.87196e-05
1.61399e-06
-5.25669e-05
1.94945e-06
-5.37556e-05
1.98966e-06
-5.98278e-05
2.17059e-06
-5.77383e-05
2.35503e-06
-5.77916e-05
1.61254e-06
-6.75248e-05
1.96162e-06
-6.51252e-05
1.8804e-06
-6.45326e-05
1.97872e-06
-5.63367e-05
1.94073e-06
-5.71943e-05
2.23978e-06
-5.79044e-05
2.41767e-06
-5.48791e-05
2.04567e-06
-6.23942e-05
1.99595e-06
-6.02105e-05
2.54093e-06
-5.95995e-05
2.51381e-06
-6.31541e-05
2.23583e-06
-6.09556e-05
2.63163e-06
-6.95202e-05
2.01817e-06
-7.39463e-05
2.29668e-06
-7.66451e-05
2.39493e-06
-8.95402e-05
2.35223e-06
-9.27759e-05
1.86883e-06
-8.16906e-05
1.3132e-06
-7.07926e-05
3.98117e-07
-6.58877e-05
-1.02368e-06
-7.39081e-05
2.25466e-06
-7.95655e-05
8.59551e-06
-7.14867e-05
6.43983e-06
-7.51865e-05
5.12525e-06
-8.05061e-05
4.58804e-06
-9.26252e-05
5.29885e-06
-8.49841e-05
5.33849e-06
-7.57023e-05
4.34916e-06
-8.36337e-05
3.52603e-06
-0.000103282
4.14339e-06
-0.000113593
4.63712e-06
-0.000105067
4.07025e-06
-9.54228e-05
4.03137e-06
-0.000107127
3.33057e-06
-0.00010187
3.69061e-06
-0.000100512
3.68758e-06
-0.000119416
4.25053e-06
-0.000116911
4.3547e-06
-0.000108219
3.92194e-06
-9.85455e-05
3.6104e-06
-9.05526e-05
4.23266e-06
-9.36287e-05
4.45093e-06
-0.000112178
3.91813e-06
-0.000130647
4.56366e-06
-0.000140272
4.55943e-06
-0.000120977
4.80736e-06
-0.000115688
5.52615e-06
-0.000104939
5.20468e-06
-0.000108788
4.3591e-06
-0.000128307
4.9067e-06
-0.000104422
4.77778e-06
-0.000110752
5.09982e-06
-0.000138703
5.19002e-06
-0.000111376
5.82217e-06
-0.000104538
5.36629e-06
-0.00012175
5.61078e-06
-0.000132844
5.5528e-06
-0.000118864
6.5265e-06
-0.000100787
5.52766e-06
-9.68616e-05
7.2015e-06
-0.000111502
6.8401e-06
-0.000142299
7.61849e-06
-0.000137453
8.3805e-06
-0.00011916
8.26949e-06
-0.000121934
7.92695e-06
-0.000135267
7.61245e-06
-0.000142359
9.95012e-06
-0.000131671
8.96464e-06
7.81149e-06
-4.17159e-05
-1.06629e-07
-6.00615e-05
1.70584e-07
-6.11084e-05
7.14394e-07
-4.89447e-05
1.09488e-06
-4.63151e-05
1.34625e-06
-5.05958e-05
1.64183e-06
-5.31951e-05
1.74755e-06
-5.59412e-05
1.75445e-06
-6.21575e-05
1.86218e-06
-6.03184e-05
2.27663e-06
-5.25833e-05
2.32897e-06
-6.07134e-05
2.14926e-06
-7.05759e-05
2.28802e-06
-7.44324e-05
2.21503e-06
-7.81782e-05
2.66149e-06
-7.31337e-05
2.98069e-06
-7.42197e-05
2.68456e-06
-7.52889e-05
3.1101e-06
-7.06456e-05
3.10976e-06
-7.35631e-05
3.12231e-06
-7.65264e-05
2.77324e-06
-7.19415e-05
3.21005e-06
-7.12158e-05
2.84248e-06
-6.73501e-05
2.66925e-06
-6.53743e-05
2.97148e-06
-7.78803e-05
2.83306e-06
-8.75499e-05
3.67781e-06
-9.39431e-05
3.7488e-06
-0.000100926
3.3329e-06
-7.96322e-05
3.17167e-06
-7.34206e-05
3.0808e-06
-7.95027e-05
3.45132e-06
-8.03703e-05
2.82238e-06
-7.75089e-05
3.49847e-06
-8.83892e-05
3.22696e-06
-0.000102322
3.8107e-06
-9.00557e-05
3.48183e-06
-7.87723e-05
3.69457e-06
-8.52199e-05
3.57191e-06
-0.000109451
3.30788e-06
-9.83943e-05
3.75928e-06
-9.93304e-05
3.65141e-06
-9.48746e-05
3.59248e-06
-8.10515e-05
2.8139e-06
-9.62127e-05
3.38273e-06
-0.000107736
2.93423e-06
-9.70145e-05
3.05171e-06
-9.02077e-05
2.15133e-06
-9.7088e-05
1.49777e-06
-0.000108114
6.13806e-07
-0.00011516
-5.3439e-07
-0.000110606
-5.43555e-08
-0.000102369
8.58189e-06
-0.000100859
1.10504e-05
-0.000101513
9.1525e-06
-0.000121804
9.42991e-06
-0.000149711
7.76935e-06
-0.000155911
8.77857e-06
-0.000134195
7.03466e-06
-0.000131442
5.93141e-06
-0.000152914
6.09051e-06
-0.000143896
5.23148e-06
-0.000136248
5.84657e-06
-0.000122484
5.83334e-06
-0.000106573
4.76252e-06
-0.000117418
5.0776e-06
-0.00013009
4.6452e-06
-0.000130425
5.2758e-06
-0.000120802
4.91105e-06
-0.000105386
4.7512e-06
-0.000113177
5.51495e-06
-0.000139215
6.1743e-06
-0.000121785
6.37426e-06
-0.000108772
5.83524e-06
-0.000111299
5.07406e-06
-0.000109112
5.58197e-06
-0.000132964
4.94082e-06
-0.000140278
7.19285e-06
-0.000117149
6.27688e-06
-0.000107011
5.98421e-06
-0.000102663
6.27366e-06
-0.000117357
5.53268e-06
-0.000116835
6.17725e-06
-0.000109163
5.68048e-06
-0.000122569
6.33772e-06
-0.000119077
6.07135e-06
-0.000105882
6.10989e-06
-0.000107923
5.69439e-06
-0.000107326
6.33792e-06
-0.000123494
6.43974e-06
-0.000148963
9.35324e-06
-0.000131408
9.11566e-06
-0.000126678
6.59084e-06
-0.000132507
7.11854e-06
-0.000130955
8.35447e-06
-0.000110252
7.47088e-06
-0.000114778
8.41851e-06
-0.000122024
9.35584e-06
-0.000103344
8.99623e-06
7.76476e-06
-8.52241e-05
1.83611e-07
-7.38524e-05
9.3941e-07
-6.82687e-05
1.30501e-06
-7.9348e-05
1.88295e-06
-8.90281e-05
2.43248e-06
-8.75722e-05
2.80249e-06
-7.99295e-05
3.14469e-06
-7.53959e-05
2.9424e-06
-8.1893e-05
2.84535e-06
-9.70299e-05
3.58226e-06
-0.000100913
3.49483e-06
-8.89091e-05
3.89386e-06
-8.34516e-05
3.83656e-06
-8.85563e-05
3.74115e-06
-0.000102247
3.68101e-06
-0.000100297
4.49841e-06
-9.85459e-05
3.79517e-06
-0.000108199
3.63151e-06
-0.000112503
3.8987e-06
-9.59729e-05
4.56048e-06
-9.44838e-05
3.98427e-06
-0.00010024
4.83524e-06
-8.53659e-05
4.25933e-06
-9.22784e-05
3.61366e-06
-0.000100131
4.80939e-06
-0.000103652
4.10548e-06
-0.00012406
4.29139e-06
-0.000108044
4.65002e-06
-9.15804e-05
4.23086e-06
-0.000104118
4.32088e-06
-0.000127826
3.99469e-06
-0.00011132
5.14693e-06
-0.000112256
3.8089e-06
-0.000130701
4.56031e-06
-0.000120358
3.94479e-06
-0.0001116
5.04529e-06
-0.000118615
4.68791e-06
-0.000138622
4.96735e-06
-0.000113733
5.68077e-06
-9.88638e-05
3.79916e-06
-0.000118284
4.38251e-06
-0.000115763
4.2927e-06
-9.82951e-05
3.59864e-06
-0.000114022
3.84913e-06
-0.00011448
4.51202e-06
-0.000112112
3.42414e-06
-0.000121593
3.55592e-06
-0.000112819
2.55931e-06
-0.000102872
2.19442e-06
-0.000116466
1.28577e-06
-0.000123805
5.99625e-07
-0.000110648
4.32611e-07
-0.000111471
4.71141e-06
-0.000110247
1.39642e-05
-0.000133174
1.43652e-05
-0.000135923
1.28671e-05
-0.000144718
1.09075e-05
-0.00016154
1.08002e-05
-0.00015252
7.0623e-06
-0.000156826
8.11383e-06
-0.000140079
6.536e-06
-0.000148075
6.15115e-06
-0.000171302
6.15724e-06
-0.00015152
6.36441e-06
-0.000151493
6.31329e-06
-0.000135494
6.043e-06
-0.000128982
4.89177e-06
-0.000131769
5.2177e-06
-0.000122661
6.25733e-06
-0.000146381
5.80197e-06
-0.000169239
5.98162e-06
-0.00015395
6.25159e-06
-0.000158396
5.88919e-06
-0.000137023
6.89265e-06
-0.00012708
6.27722e-06
-0.000123533
6.38545e-06
-0.000126582
6.59188e-06
-0.000147545
6.19674e-06
-0.000139198
7.77352e-06
-0.000146679
7.43282e-06
-0.000137915
6.96373e-06
-0.000118188
6.05177e-06
-0.00011762
5.83866e-06
-0.00012274
7.35551e-06
-0.000113773
7.94439e-06
-0.000108421
6.76919e-06
-0.000107751
7.84682e-06
-0.000104796
6.34506e-06
-0.000111182
7.69375e-06
-0.000131144
8.15667e-06
-0.00015485
7.63055e-06
-0.00012171
7.30891e-06
-0.000102448
6.27312e-06
-0.000116588
7.29384e-06
-0.000114996
7.58312e-06
-0.000123083
7.68186e-06
-0.000135281
8.22298e-06
-0.000125782
8.0491e-06
-0.000111027
9.87591e-06
1.00287e-05
-9.68899e-05
3.70362e-07
-9.05081e-05
1.26755e-06
-8.89077e-05
1.75039e-06
-9.36523e-05
2.3946e-06
-9.6521e-05
3.13949e-06
-0.000104813
3.49475e-06
-0.000105471
3.5564e-06
-9.38169e-05
4.20307e-06
-9.90898e-05
3.57407e-06
-0.000102169
3.99208e-06
-0.000105521
3.80301e-06
-0.000129424
5.12218e-06
-0.000134468
4.67498e-06
-0.000119893
5.16972e-06
-0.000120718
4.20884e-06
-0.00012144
4.60204e-06
-9.94228e-05
5.13422e-06
-9.3487e-05
4.70273e-06
-0.00010813
4.49794e-06
-0.000124265
4.62698e-06
-0.00013254
4.54243e-06
-0.000133263
5.0789e-06
-0.000116338
5.26644e-06
-0.000120166
4.90659e-06
-0.000127659
5.29764e-06
-0.000112279
5.49835e-06
-0.000110105
4.4595e-06
-0.000122628
4.78935e-06
-0.000138168
5.44728e-06
-0.000117449
5.74466e-06
-0.000118093
4.73494e-06
-0.000128535
5.34389e-06
-0.000116283
4.80329e-06
-0.000106214
4.95037e-06
-0.000120436
4.11766e-06
-0.00015216
4.99348e-06
-0.00013933
5.17949e-06
-0.000144178
5.37204e-06
-0.000129066
5.68726e-06
-0.000119883
4.85429e-06
-0.000117375
4.80729e-06
-0.000102767
4.05356e-06
-0.000112734
4.57708e-06
-0.000131471
4.31617e-06
-0.000131917
4.12876e-06
-0.000128882
4.66298e-06
-0.000119857
3.60843e-06
-0.000126482
3.49347e-06
-0.000154826
2.99858e-06
-0.000138342
2.14637e-06
-0.000131643
1.07382e-06
-0.00012861
2.41592e-07
-0.000131296
-1.49679e-07
-0.00015672
1.48114e-05
-0.000145398
1.96669e-05
-0.000155629
1.8005e-05
-0.000177908
1.32896e-05
-0.000148904
1.0496e-05
-0.000152954
8.15471e-06
-0.000164979
8.72863e-06
-0.000159845
6.86207e-06
-0.000154412
6.21587e-06
-0.000145977
5.86663e-06
-0.000162564
5.96474e-06
-0.000152834
5.89794e-06
-0.000130722
5.59161e-06
-0.000118983
5.15128e-06
-0.000140107
4.99977e-06
-0.000159776
7.29289e-06
-0.000129006
6.61041e-06
-0.000122886
5.23955e-06
-0.000125364
6.4787e-06
-0.000128047
5.96288e-06
-0.000144955
7.48279e-06
-0.000140476
7.26929e-06
-0.000147953
6.77471e-06
-0.000139285
8.51239e-06
-0.000139032
5.83921e-06
-0.000169261
8.19642e-06
-0.000141048
6.74796e-06
-0.000120986
7.60996e-06
-0.000114991
5.95835e-06
-0.000131999
5.86295e-06
-0.000164562
6.95762e-06
-0.00015338
7.8268e-06
-0.000152326
7.80416e-06
-0.00013447
7.81922e-06
-0.000130037
6.75428e-06
-0.00015255
7.59817e-06
-0.000127182
8.38438e-06
-0.00010443
7.57645e-06
-0.00010151
7.1401e-06
-0.000112508
7.53667e-06
-0.000116587
7.55215e-06
-0.000118255
6.82351e-06
-0.00011348
7.1923e-06
-0.00010443
7.78968e-06
-0.000116575
8.25536e-06
-0.000135988
1.06614e-05
1.16579e-05
-0.000128017
6.42555e-07
-0.000109239
1.49912e-06
-9.97532e-05
2.40911e-06
-0.000110251
2.66351e-06
-0.000119734
3.65418e-06
-0.000105961
4.66459e-06
-0.000111812
4.03991e-06
-0.000115152
4.91747e-06
-0.000100255
4.71709e-06
-0.000100699
4.16631e-06
-0.000119793
4.42473e-06
-0.000123531
6.19884e-06
-0.000120855
4.49231e-06
-0.000118257
5.55698e-06
-0.000105287
4.36163e-06
-0.00012244
5.24522e-06
-0.000150687
5.89593e-06
-0.000137911
5.31154e-06
-0.000114801
5.11157e-06
-0.000102694
4.91591e-06
-0.000105356
4.957e-06
-0.000118942
5.22188e-06
-0.000129034
5.23213e-06
-0.000126061
6.37823e-06
-0.000133534
5.13046e-06
-0.000126898
5.24372e-06
-0.000115204
4.67214e-06
-0.000127746
5.52726e-06
-0.000139147
5.21813e-06
-0.000143707
6.31033e-06
-0.000136168
5.9135e-06
-0.000129437
5.28546e-06
-0.00013338
5.56374e-06
-0.000123762
5.71932e-06
-0.000110347
4.58628e-06
-0.000113178
4.82539e-06
-0.00012804
4.95544e-06
-0.000135314
5.21225e-06
-0.000135666
5.22103e-06
-0.000125805
5.07939e-06
-0.000109669
4.60844e-06
-0.000123363
4.56594e-06
-0.000126773
5.17154e-06
-0.000108185
4.28307e-06
-0.000127492
3.95753e-06
-0.000134613
5.45921e-06
-0.000138748
3.89326e-06
-0.000156206
4.87386e-06
-0.000132829
3.5567e-06
-0.000118432
2.73376e-06
-0.000111651
2.12314e-06
-0.000126081
1.38068e-06
-0.000154061
7.02974e-07
-0.000146636
5.20933e-06
-0.000162065
2.03608e-05
-0.000168282
1.89998e-05
-0.000146324
1.28072e-05
-0.000152657
1.13879e-05
-0.000163969
8.96848e-06
-0.000162574
7.32805e-06
-0.000141246
6.1492e-06
-0.000134063
5.77844e-06
-0.000136626
5.95783e-06
-0.000126977
7.09236e-06
-0.000123865
5.48548e-06
-0.000120796
6.57538e-06
-0.00011539
5.29842e-06
-0.000131469
5.97848e-06
-0.000152601
6.42666e-06
-0.000130227
6.27947e-06
-0.000129933
5.76174e-06
-0.000139133
6.68852e-06
-0.000150288
6.82096e-06
-0.000158125
7.74424e-06
-0.00014482
7.89173e-06
-0.000156726
6.45113e-06
-0.000139448
8.59199e-06
-0.000135322
6.06036e-06
-0.000131021
6.79751e-06
-0.000137555
6.88155e-06
-0.000132877
7.5776e-06
-0.000107569
6.96537e-06
-0.000109217
7.42802e-06
-0.000118628
6.17297e-06
-0.000133268
6.54788e-06
-0.000128749
6.68869e-06
-0.000118744
6.38929e-06
-0.000115012
6.87719e-06
-0.000119728
6.64497e-06
-0.000131479
7.15045e-06
-0.000130367
9.10949e-06
-0.000129156
8.36718e-06
-0.000121026
7.42158e-06
-0.000106182
7.18531e-06
-9.83183e-05
6.98833e-06
-0.000106352
7.38597e-06
-0.000118485
8.69125e-06
-0.00013051
8.85155e-06
-0.000144884
9.75189e-06
9.28926e-06
-0.000121933
9.35782e-07
-0.000113572
2.10391e-06
-0.000111441
3.28697e-06
-0.000104526
3.453e-06
-0.000131247
3.89067e-06
-0.000139502
4.40195e-06
-0.000125292
5.24804e-06
-0.000132717
4.87903e-06
-0.000122892
4.74656e-06
-0.000111825
4.75718e-06
-0.000134
4.81407e-06
-0.000130752
6.16966e-06
-0.000121344
5.43666e-06
-0.000118733
6.09738e-06
-0.000125216
4.74102e-06
-0.000144029
6.56078e-06
-0.000119758
6.23398e-06
-0.000111887
4.96678e-06
-0.000120372
5.98698e-06
-0.000130193
6.01252e-06
-0.000134026
6.58988e-06
-0.000124262
5.73616e-06
-0.000138401
5.76947e-06
-0.000138697
6.06498e-06
-0.000111204
6.11565e-06
-0.000106704
4.88023e-06
-0.000122589
5.10183e-06
-0.000125919
6.43917e-06
-0.00013285
5.07336e-06
-0.000148804
5.41207e-06
-0.000133444
5.14121e-06
-0.000133756
5.8431e-06
-0.000141511
6.54022e-06
-0.000124527
6.15629e-06
-0.000118995
4.9019e-06
-0.000125053
5.13749e-06
-0.000119472
5.86523e-06
-0.000119702
5.29936e-06
-0.000117201
5.29948e-06
-0.000112316
5.30042e-06
-0.000117649
5.031e-06
-0.000120632
4.7641e-06
-0.000115518
5.4451e-06
-0.00011086
5.49062e-06
-0.000127421
4.22081e-06
-0.000137914
5.41658e-06
-0.000142158
4.20894e-06
-0.000150953
5.08907e-06
-0.000139782
3.77525e-06
-0.000148511
3.85592e-06
-0.000153969
3.1424e-06
-0.000129632
3.20681e-06
-0.000128677
2.66894e-06
-0.000166403
4.75975e-06
-0.000158151
1.3375e-05
-0.000137622
1.23625e-05
-0.000156878
1.18224e-05
-0.000158122
1.22681e-05
-0.000138112
1.0241e-05
-0.000125191
7.55068e-06
-0.000124389
5.77545e-06
-0.000129154
6.89504e-06
-0.00015288
6.18451e-06
-0.000147764
7.99163e-06
-0.000140133
6.54499e-06
-0.000135854
7.86213e-06
-0.000129172
5.53615e-06
-0.000138028
7.00115e-06
-0.0001279
5.80957e-06
-0.000127375
5.58047e-06
-0.000129766
6.10128e-06
-0.000139218
7.44209e-06
-0.000145973
8.10111e-06
-0.000158177
6.58952e-06
-0.000140661
8.28382e-06
-0.000140335
6.76686e-06
-0.000143031
6.9077e-06
-0.000119776
6.09865e-06
-0.000134457
6.00223e-06
-0.000137044
8.60235e-06
-0.00013637
6.20706e-06
-0.000160642
8.39539e-06
-0.000134004
6.98339e-06
-0.000110112
6.78218e-06
-0.000107095
7.46787e-06
-0.000104192
6.19608e-06
-0.000108013
7.14512e-06
-0.000109527
7.61377e-06
-0.000106371
7.76649e-06
-0.000124582
8.0097e-06
-0.000141355
1.00018e-05
-0.000116066
7.62995e-06
-0.000104824
6.75533e-06
-0.000106048
8.41219e-06
-0.000109655
7.03044e-06
-0.000116299
8.24359e-06
-0.00011755
9.09008e-06
-0.000115802
9.93935e-06
-0.000111097
1.00248e-05
9.34165e-06
-0.00015451
9.7212e-07
-0.000155565
2.26046e-06
-0.000147282
3.74191e-06
-0.000136015
4.09759e-06
-0.00011484
3.45017e-06
-0.000126753
3.75299e-06
-0.000141227
4.42296e-06
-0.000115833
4.07188e-06
-0.000116088
3.84578e-06
-0.000124825
4.12913e-06
-0.000131474
4.42124e-06
-0.000151081
5.37429e-06
-0.000160809
5.35548e-06
-0.000139318
6.1594e-06
-0.000139548
4.22778e-06
-0.0001616
5.46131e-06
-0.000143849
6.06354e-06
-0.000148156
5.32029e-06
-0.000167492
6.32689e-06
-0.000167696
5.13251e-06
-0.000153083
4.99965e-06
-0.000144748
4.72666e-06
-0.000137291
5.7294e-06
-0.00014508
5.06165e-06
-0.000145247
6.73061e-06
-0.000127674
4.81202e-06
-0.000145573
5.19667e-06
-0.000141807
6.54157e-06
-0.000116737
5.2138e-06
-0.000109579
5.27429e-06
-0.000128453
4.73076e-06
-0.000164798
5.92257e-06
-0.000165017
6.70929e-06
-0.000139141
5.11267e-06
-0.000123113
5.49925e-06
-0.000139472
4.82263e-06
-0.0001516
4.99267e-06
-0.000136203
4.80959e-06
-0.000139941
4.60439e-06
-0.000140106
6.22421e-06
-0.000121151
4.9726e-06
-0.000130181
5.1624e-06
-0.000167078
5.9648e-06
-0.000137367
6.69793e-06
-0.000124857
4.5254e-06
-0.000128206
4.58957e-06
-0.000131786
5.0135e-06
-0.00013237
5.34569e-06
-0.000133075
3.67349e-06
-0.000133928
4.5351e-06
-0.000138277
4.05852e-06
-0.000154754
4.12203e-06
-0.000139799
2.89913e-06
-0.000140004
2.17408e-06
-0.000137694
6.82442e-06
-0.000139614
1.51797e-05
-0.000164632
1.24767e-05
-0.000191217
1.03009e-05
-0.000176414
8.64994e-06
-0.000137795
7.49238e-06
-0.000143196
5.41675e-06
-0.000156673
5.99772e-06
-0.000155647
5.53741e-06
-0.000168238
6.44513e-06
-0.000172353
7.37022e-06
-0.000144957
6.50732e-06
-0.000137475
6.51347e-06
-0.000136588
6.0063e-06
-0.000118751
5.73598e-06
-0.000120813
5.28892e-06
-0.000149567
6.84769e-06
-0.000183172
6.55786e-06
-0.000151795
6.73247e-06
-0.000143313
6.23578e-06
-0.000159262
6.88634e-06
-0.000134668
8.15645e-06
-0.000119333
6.4573e-06
-0.000118701
6.54988e-06
-0.000139944
6.13839e-06
-0.000138885
8.66801e-06
-0.000134852
6.32844e-06
-0.00013035
7.05868e-06
-0.00012075
5.70834e-06
-0.000147166
7.37739e-06
-0.000130907
7.19128e-06
-0.000123882
6.81113e-06
-0.000139712
7.7291e-06
-0.000142447
7.5858e-06
-0.000149665
9.40313e-06
-0.00015758
7.36464e-06
-0.000130826
1.01869e-05
-0.000106851
7.30769e-06
-0.000122235
7.85403e-06
-0.000120348
8.02966e-06
-0.00011065
6.99323e-06
-0.000127048
7.79465e-06
-0.000140588
7.94122e-06
-0.000147502
1.02877e-05
-0.00013572
9.08491e-06
9.28624e-06
-0.000136617
5.29516e-07
-0.000162829
1.39909e-06
-0.00019441
1.89213e-06
-0.000152246
2.27738e-06
-0.000142108
2.18928e-06
-0.000149074
2.32728e-06
-0.000139225
2.505e-06
-0.000136235
2.7193e-06
-0.000133329
2.50905e-06
-0.000139209
2.77303e-06
-0.000164762
2.76924e-06
-0.000173833
3.02259e-06
-0.000183908
3.16085e-06
-0.000160271
3.20837e-06
-0.000145202
2.9089e-06
-0.00017822
2.71127e-06
-0.000188842
2.78763e-06
-0.000188619
2.7633e-06
-0.000163654
3.14918e-06
-0.000135011
2.43891e-06
-0.000131967
2.38872e-06
-0.000151089
3.13718e-06
-0.000167258
3.13738e-06
-0.000181775
3.20394e-06
-0.000171526
2.84219e-06
-0.000154159
2.66101e-06
-0.000181151
2.93873e-06
-0.00018648
3.07097e-06
-0.000186251
2.82872e-06
-0.000180638
3.69815e-06
-0.000170412
2.97043e-06
-0.000191529
3.30157e-06
-0.000165533
3.21083e-06
-0.000160978
3.45467e-06
-0.000169779
2.8727e-06
-0.000138753
2.77269e-06
-0.000129735
2.8489e-06
-0.000129592
3.31824e-06
-0.000155925
2.87863e-06
-0.000168796
3.0963e-06
-0.000163963
2.80318e-06
-0.000183705
3.51312e-06
-0.000189268
3.03538e-06
-0.000173017
3.60596e-06
-0.000140782
2.79524e-06
-0.000159266
3.46606e-06
-0.000195485
3.08376e-06
-0.000151762
3.63776e-06
-0.000144744
3.20565e-06
-0.000184788
2.71626e-06
-0.000191323
3.26248e-06
-0.000153721
2.41507e-06
-0.000150434
2.0773e-06
-0.000172428
1.29687e-06
-0.000179586
4.23861e-07
-0.000175305
8.78462e-06
-0.00016686
1.08506e-05
-0.000168151
6.28866e-06
-0.000173169
4.88211e-06
-0.000157493
5.09847e-06
-0.000138535
3.3521e-06
-0.000137123
4.59013e-06
-0.000145407
3.82665e-06
-0.000172318
4.80487e-06
-0.000166193
4.28423e-06
-0.000165223
4.12324e-06
-0.000155444
5.46698e-06
-0.000137067
4.46618e-06
-0.000133051
4.89357e-06
-0.000148768
4.37085e-06
-0.000151263
5.77907e-06
-0.000130443
4.6519e-06
-0.000138921
5.13546e-06
-0.000144819
4.83885e-06
-0.000164408
5.00857e-06
-0.00017283
4.97831e-06
-0.00015286
4.17974e-06
-0.000140222
5.12711e-06
-0.000150386
5.01931e-06
-0.000153081
5.18082e-06
-0.000130069
4.43948e-06
-0.00011781
5.27879e-06
-0.000124848
4.21852e-06
-0.000126374
5.10584e-06
-0.000122374
5.18098e-06
-0.000130029
5.63266e-06
-0.000125412
5.36593e-06
-0.00014129
5.86036e-06
-0.000128535
5.66569e-06
-0.000127278
4.91902e-06
-0.000135876
7.13263e-06
-0.00012411
7.18962e-06
-0.0001162
6.66856e-06
-0.000102234
5.83197e-06
-0.000102958
7.01138e-06
-0.000101227
6.29603e-06
-0.000112095
6.17863e-06
-0.000115884
9.48689e-06
-0.000108649
8.7329e-06
8.98005e-06
-0.000342652
-0.000316759
-0.000301082
-0.000318422
-0.000301812
-0.000301544
-0.000336563
-0.000326476
-0.000325678
-0.000334561
-0.000315157
-0.000332778
-0.000331961
-0.00033097
-0.0003034
-0.000260258
-0.000253566
-0.000271234
-0.000257908
-0.000230248
-0.000275247
-0.000313687
-0.000295651
-0.000259655
-0.000231135
-0.000245994
-0.00025085
-0.000238841
-0.000267612
-0.000280842
-0.00026574
-0.000264835
-0.000293034
-0.000269762
-0.000222899
-0.000242683
-0.000288722
-0.000287773
-0.000239988
-0.00022343
-0.000243689
-0.000242874
-0.00024182
-0.000235475
-0.000258425
-0.00026476
-0.000250465
-0.000312399
-0.000262823
-0.000242918
-0.000237254
-0.000226319
-0.000256068
-0.000239841
-0.000224504
-0.000279025
-0.000318172
-0.000280236
-0.000303056
-0.000258409
-0.000260593
-0.000284652
-0.000280793
-0.000276903
-0.000245524
-0.000277967
-0.000291572
-0.000279106
-0.000267277
-0.000271578
-0.000276278
-0.000272501
-0.000260603
-0.000242268
-0.000225947
-0.000187354
-0.000193273
-0.000221827
-0.000206812
-0.000179843
-0.000189941
-0.000182013
-0.000162663
-0.00017927
-0.000184789
-0.000171806
-0.000172212
-0.000160061
-0.000139279
-0.000152089
-0.000183788
-0.000168541
-0.000136197
-0.000141621
-0.00013655
-0.000113753
-0.000128721
-0.000150589
-0.000130462
)
;

boundaryField
{
    inlet
    {
        type            fixedValue;
        value           nonuniform List<scalar> 10(-5e-05 -5e-05 -5e-05 -5e-05 -5e-05 -5e-05 -5e-05 -5e-05 -5e-05 -5e-05);
    }
    outlet
    {
        type            calculated;
        value           nonuniform List<scalar> 10(9.59554e-30 3.72645e-10 7.23042e-06 8.46425e-05 9.66805e-05 0.000135764 0.000154011 0.000144809 0.000139166 0.000330924);
    }
    walls
    {
        type            fixedValue;
        value           uniform 0;
    }
}


// ************************************************************************* //
