/*--------------------------------*- C++ -*----------------------------------*\
| =========                 |                                                 |
| \\      /  F ield         | foam-extend: Open Source CFD                    |
|  \\    /   O peration     | Version:     5.0                                |
|   \\  /    A nd           | Web:         http://www.foam-extend.org         |
|    \\/     M anipulation  |                                                 |
\*---------------------------------------------------------------------------*/
FoamFile
{
    version     2.0;
    format      ascii;
    class       surfaceScalarField;
    location    "10000";
    object      phi.oil;
}
// * * * * * * * * * * * * * * * * * * * * * * * * * * * * * * * * * * * * * //

dimensions      [0 3 -1 0 0 0 0];

internalField   nonuniform List<scalar> 
1890
(
-3.30187e-05
-1.23192e-06
-3.66283e-05
-5.52743e-07
-3.92793e-05
-4.12765e-07
-3.90224e-05
-2.43415e-07
-4.23857e-05
-1.48265e-07
-4.49924e-05
-9.91368e-08
-3.97735e-05
-8.68264e-08
-3.97234e-05
-3.98279e-08
-4.48105e-05
-3.40938e-08
-3.47066e-05
-2.46205e-08
-3.0165e-05
-1.65214e-08
-3.01661e-05
1.32578e-09
-2.89822e-05
7.79041e-08
-2.97599e-05
1.85083e-07
-3.69129e-05
1.00441e-07
-4.38684e-05
2.94526e-08
-3.42581e-05
2.62082e-08
-3.19391e-05
1.76716e-08
-3.27035e-05
2.47458e-08
-2.99417e-05
2.36649e-08
-3.27521e-05
2.60574e-08
-3.80947e-05
2.87042e-08
-3.61703e-05
3.41288e-08
-3.61975e-05
2.7377e-08
-4.03655e-05
2.83664e-08
-3.92707e-05
2.71079e-08
-3.44983e-05
2.01717e-08
-3.21536e-05
9.30077e-09
-3.82321e-05
-8.28359e-09
-4.71212e-05
-4.14687e-08
-3.81103e-05
-1.01329e-07
-3.42076e-05
-2.80813e-07
-3.6542e-05
-3.91377e-07
-3.82914e-05
-2.57056e-07
-3.53179e-05
-1.53044e-07
-2.98846e-05
-7.80002e-08
-2.92292e-05
-6.43447e-08
-3.52075e-05
-5.10161e-08
-3.81283e-05
-6.08869e-08
-3.11801e-05
-6.14786e-08
-3.1159e-05
-5.36575e-08
-3.11345e-05
-7.31656e-08
-3.33677e-05
-7.45963e-08
-3.41465e-05
-1.07821e-07
-3.02692e-05
-1.3477e-07
-3.66633e-05
-1.71848e-07
-3.8526e-05
-3.32679e-07
-3.17712e-05
-4.53487e-07
-3.35574e-05
-7.4929e-07
-3.34757e-05
-1.58518e-06
-2.85729e-05
-1.83545e-06
-2.37794e-05
1.36877e-06
-2.07016e-05
1.5374e-06
-2.19502e-05
4.22671e-07
-2.05954e-05
1.99598e-07
-2.0271e-05
1.25874e-07
-2.05053e-05
1.0126e-07
-1.85252e-05
8.84518e-08
-2.01976e-05
7.13615e-09
-2.02696e-05
-9.91708e-09
-1.85887e-05
3.37254e-09
-1.46252e-05
2.13246e-08
-1.36811e-05
1.92997e-08
-1.54898e-05
-1.30025e-08
-1.36063e-05
-2.57147e-08
-1.30628e-05
-8.37465e-09
-1.339e-05
-3.48782e-08
-1.29074e-05
-1.96254e-08
-1.35986e-05
-3.47556e-08
-1.35555e-05
-4.08678e-08
-1.21325e-05
-4.56421e-08
-1.19446e-05
-3.17597e-08
-1.23119e-05
-4.29398e-08
-1.09176e-05
-2.67785e-08
-1.0531e-05
-2.01601e-08
-1.04174e-05
-2.00686e-08
-1.03282e-05
-2.8087e-08
-1.05088e-05
-3.33123e-08
-9.35011e-06
-3.76112e-08
-8.18449e-06
-2.75584e-08
-8.24802e-06
-2.51191e-08
-7.85192e-06
-3.16324e-08
-8.07307e-06
-3.47346e-08
-8.21505e-06
-3.43104e-08
-6.78048e-06
-2.87022e-08
-6.44632e-06
-2.36815e-08
-5.85941e-06
-2.39174e-08
-4.71924e-06
-3.18027e-09
-4.4622e-06
-8.60105e-09
-4.65038e-06
-2.0685e-08
-4.78989e-06
-3.31936e-08
-3.55599e-06
-1.23835e-08
-3.14555e-06
8.99006e-09
-3.20657e-06
5.91516e-10
-2.65665e-06
-6.87523e-09
-1.93502e-06
1.89944e-09
-1.39199e-06
1.22113e-08
-9.8667e-07
8.91283e-09
-7.56514e-07
-1.84165e-08
-1.45689e-08
-3.764e-05
-1.43592e-06
-3.54638e-05
-8.55578e-07
-3.80741e-05
-7.5522e-07
-3.2593e-05
-4.71598e-07
-2.90913e-05
-2.4065e-07
-3.48247e-05
-1.69669e-07
-3.47701e-05
-1.3702e-07
-3.15723e-05
-7.7881e-08
-3.55922e-05
-6.00113e-08
-3.85328e-05
-5.19706e-08
-3.84992e-05
-5.02008e-08
-3.45732e-05
-7.35758e-08
-3.61741e-05
-1.95013e-07
-3.98532e-05
-3.33526e-07
-3.34299e-05
-2.26794e-07
-3.48159e-05
-9.06034e-08
-3.78828e-05
-7.91423e-08
-3.39429e-05
-5.3732e-08
-3.2266e-05
-4.72277e-08
-3.30421e-05
-3.88518e-08
-3.38705e-05
-4.59717e-08
-3.473e-05
-4.10517e-08
-3.66355e-05
-4.6482e-08
-3.46771e-05
-4.80235e-08
-3.37581e-05
-4.95966e-08
-3.20772e-05
-5.6117e-08
-3.36781e-05
-7.47501e-08
-3.36398e-05
-9.37714e-08
-3.63843e-05
-1.20635e-07
-3.44289e-05
-1.76009e-07
-3.34974e-05
-1.63543e-07
-3.85175e-05
-2.90426e-07
-3.65265e-05
-3.13452e-07
-3.55854e-05
-2.73714e-07
-3.06122e-05
-2.05918e-07
-3.05887e-05
-1.82488e-07
-3.05704e-05
-1.77081e-07
-2.85586e-05
-1.38271e-07
-3.20226e-05
-1.34066e-07
-3.05157e-05
-1.71979e-07
-2.98016e-05
-1.74021e-07
-3.11958e-05
-1.75908e-07
-2.97463e-05
-2.25092e-07
-3.35118e-05
-2.0948e-07
-3.52511e-05
-2.97749e-07
-3.61264e-05
-3.93786e-07
-4.17859e-05
-5.61972e-07
-4.29587e-05
-7.32366e-07
-3.77235e-05
-1.06427e-06
-3.30332e-05
-1.54306e-06
-3.13528e-05
-2.07058e-06
-3.07353e-05
-4.89234e-07
-2.76847e-05
2.62691e-06
-1.90441e-05
1.66386e-06
-1.81191e-05
8.95881e-07
-1.76371e-05
6.19822e-07
-1.92885e-05
5.27344e-07
-1.69617e-05
3.84362e-07
-1.4113e-05
2.18306e-07
-1.47791e-05
8.67203e-08
-1.75392e-05
3.43582e-08
-1.86897e-05
-1.8358e-08
-1.66274e-05
-3.84126e-08
-1.44916e-05
-4.74611e-08
-1.55005e-05
-5.91416e-08
-1.43894e-05
-8.07011e-08
-1.34075e-05
-5.50896e-08
-1.54939e-05
-8.37962e-08
-1.45926e-05
-8.32155e-08
-1.30245e-05
-7.93619e-08
-1.13358e-05
-5.96857e-08
-9.964e-06
-4.66948e-08
-9.74423e-06
-4.34859e-08
-1.11768e-05
-6.47707e-08
-1.25053e-05
-8.08698e-08
-1.29335e-05
-8.55383e-08
-1.07468e-05
-7.80274e-08
-9.69854e-06
-5.45979e-08
-8.47174e-06
-6.61317e-08
-8.13098e-06
-4.81977e-08
-9.27428e-06
-7.31706e-08
-7.16509e-06
-6.28862e-08
-6.98462e-06
-4.62334e-08
-8.41493e-06
-7.16928e-08
-6.43234e-06
-6.17041e-08
-5.46847e-06
-3.51551e-08
-5.9878e-06
-5.12935e-08
-6.06914e-06
-4.83691e-08
-5.12345e-06
-4.08519e-08
-3.89275e-06
-1.78643e-08
-3.34751e-06
-2.99681e-09
-3.31339e-06
-1.63499e-08
-3.84597e-06
-4.72221e-08
-3.35852e-06
-5.20027e-08
-2.46448e-06
-3.81227e-08
-1.98036e-06
-3.69363e-08
-1.7326e-06
-4.63919e-08
-1.32599e-06
-4.10704e-08
-7.85802e-07
-4.67293e-08
-2.76202e-08
-3.19552e-05
-1.67449e-06
-3.62964e-05
-1.13172e-06
-4.07609e-05
-8.14839e-07
-3.16234e-05
-5.94525e-07
-2.86468e-05
-4.08801e-07
-3.05963e-05
-3.40921e-07
-3.12404e-05
-2.61032e-07
-3.19301e-05
-2.0318e-07
-3.44226e-05
-1.74048e-07
-3.2586e-05
-1.87207e-07
-2.75523e-05
-1.77052e-07
-3.08342e-05
-1.81047e-07
-3.51365e-05
-2.50436e-07
-3.62453e-05
-2.70782e-07
-3.73383e-05
-2.68182e-07
-3.42736e-05
-2.18281e-07
-3.42436e-05
-1.5978e-07
-3.42171e-05
-1.59081e-07
-3.16294e-05
-1.45202e-07
-3.2417e-05
-1.36893e-07
-3.32529e-05
-1.21813e-07
-3.08008e-05
-1.36344e-07
-3.00495e-05
-1.22119e-07
-2.80315e-05
-1.17481e-07
-2.68214e-05
-1.32105e-07
-3.14924e-05
-1.33064e-07
-3.49712e-05
-1.85078e-07
-3.69988e-05
-2.02656e-07
-3.92911e-05
-2.07958e-07
-3.06555e-05
-2.25025e-07
-2.79342e-05
-2.48175e-07
-2.99754e-05
-3.24424e-07
-3.00408e-05
-2.89426e-07
-2.87119e-05
-3.34088e-07
-3.24019e-05
-2.78498e-07
-3.7162e-05
-3.04592e-07
-3.23862e-05
-2.59563e-07
-2.8058e-05
-2.61569e-07
-3.00498e-05
-2.49058e-07
-3.8228e-05
-2.41766e-07
-3.40806e-05
-2.89327e-07
-3.40578e-05
-2.95503e-07
-3.22902e-05
-3.34856e-07
-2.73526e-05
-3.00176e-07
-3.22238e-05
-4.33728e-07
-3.58527e-05
-4.97089e-07
-3.21222e-05
-7.07421e-07
-2.97953e-05
-7.76026e-07
-3.21205e-05
-1.01739e-06
-3.60162e-05
-1.30252e-06
-3.87778e-05
-2.14699e-06
-3.63992e-05
-1.71796e-06
-2.72266e-05
1.4729e-06
-2.08292e-05
2.06028e-06
-1.79145e-05
1.26778e-06
-1.97766e-05
9.88472e-07
-2.36777e-05
5.30134e-07
-2.37366e-05
4.63562e-07
-1.97347e-05
2.36002e-07
-1.83578e-05
1.33365e-07
-2.07928e-05
4.23357e-08
-1.90515e-05
-1.63433e-08
-1.73878e-05
-6.44899e-09
-1.5208e-05
-2.08772e-08
-1.26876e-05
-1.79037e-08
-1.34157e-05
-2.57953e-08
-1.44899e-05
-5.56213e-08
-1.4052e-05
-4.99937e-08
-1.26544e-05
-4.64347e-08
-1.06105e-05
-2.56162e-08
-1.0901e-05
-1.0378e-08
-1.30192e-05
-2.50969e-08
-1.11308e-05
-3.23087e-08
-9.44738e-06
-9.87128e-09
-9.34805e-06
-2.99519e-08
-8.76467e-06
-2.56605e-08
-1.0211e-05
-3.44718e-08
-1.05653e-05
-4.55718e-08
-8.43299e-06
-2.41343e-08
-7.34712e-06
-1.72765e-08
-6.68043e-06
-1.81673e-08
-7.19812e-06
-3.29316e-08
-6.93968e-06
-4.94226e-08
-6.03906e-06
-3.28138e-08
-6.42494e-06
-4.01116e-08
-5.9318e-06
-4.34464e-08
-4.91056e-06
-3.16689e-08
-4.58519e-06
-2.8608e-08
-4.25544e-06
-2.95964e-08
-4.34448e-06
-1.96528e-08
-5.02413e-06
-4.19045e-08
-4.05179e-06
-4.0656e-08
-3.47999e-06
-4.29982e-08
-3.2525e-06
-3.62461e-08
-2.85483e-06
-2.48931e-08
-2.06252e-06
-1.39102e-08
-1.56864e-06
1.19453e-08
-1.39843e-06
-1.03815e-08
-7.0042e-07
5.85915e-09
-1.70876e-09
-3.45046e-05
-1.62053e-06
-2.95299e-05
-1.26372e-06
-2.68625e-05
-7.76719e-07
-3.07944e-05
-6.54092e-07
-3.41316e-05
-5.67361e-07
-3.31398e-05
-4.67958e-07
-2.98517e-05
-3.96055e-07
-2.77688e-05
-2.97678e-07
-2.97568e-05
-2.47257e-07
-3.48168e-05
-2.80499e-07
-3.58118e-05
-2.68125e-07
-3.12089e-05
-3.00123e-07
-2.90002e-05
-3.10035e-07
-3.05014e-05
-3.11105e-07
-3.48933e-05
-2.86656e-07
-3.39306e-05
-3.09499e-07
-3.30065e-05
-2.3289e-07
-3.59109e-05
-2.06897e-07
-3.69887e-05
-2.08372e-07
-3.12929e-05
-2.33667e-07
-3.05017e-05
-1.97026e-07
-3.21026e-05
-2.38425e-07
-2.7104e-05
-2.09012e-07
-2.90341e-05
-1.79357e-07
-3.12632e-05
-2.42942e-07
-3.20777e-05
-2.13182e-07
-3.8084e-05
-2.33674e-07
-3.29348e-05
-2.6849e-07
-2.76927e-05
-2.58421e-07
-3.12476e-05
-2.86462e-07
-3.81052e-05
-2.94682e-07
-3.29941e-05
-4.07798e-07
-3.30373e-05
-3.12523e-07
-3.82412e-05
-3.73075e-07
-3.49851e-05
-3.09567e-07
-3.22327e-05
-3.72825e-07
-3.40267e-05
-3.34213e-07
-3.95167e-05
-3.50473e-07
-3.22397e-05
-3.99769e-07
-2.78442e-05
-2.72718e-07
-3.31116e-05
-3.27505e-07
-3.22414e-05
-3.4803e-07
-2.72247e-05
-3.21716e-07
-3.14102e-05
-3.93783e-07
-3.14066e-05
-5.56641e-07
-3.06181e-05
-5.29441e-07
-3.31081e-05
-7.43391e-07
-3.06611e-05
-7.81855e-07
-2.79619e-05
-1.09587e-06
-3.1769e-05
-1.26741e-06
-3.3879e-05
-1.59873e-06
-3.0416e-05
-1.50832e-06
-2.82477e-05
-1.51912e-07
-2.09231e-05
2.26586e-06
-2.0485e-05
1.91217e-06
-2.05312e-05
1.1773e-06
-1.9899e-05
8.27468e-07
-2.18941e-05
5.09336e-07
-1.97001e-05
1.95992e-07
-1.95958e-05
1.43567e-07
-1.69742e-05
2.37207e-08
-1.71443e-05
-9.80222e-09
-1.94636e-05
-6.63321e-08
-1.67488e-05
-6.30507e-08
-1.61506e-05
-5.10975e-08
-1.41477e-05
-6.95666e-08
-1.2873e-05
-5.06002e-08
-1.28647e-05
-6.20114e-08
-1.15158e-05
-3.70482e-08
-1.32509e-05
-4.72817e-08
-1.50315e-05
-6.94938e-08
-1.33059e-05
-5.68793e-08
-1.32347e-05
-4.17017e-08
-1.12222e-05
-3.21978e-08
-9.90555e-06
-6.66256e-09
-9.40318e-06
-2.19888e-08
-9.1368e-06
-6.96124e-09
-1.04098e-05
-3.81783e-08
-9.47611e-06
-2.13396e-08
-9.58132e-06
-2.01865e-08
-8.76925e-06
-3.01241e-08
-7.14628e-06
-1.72962e-08
-6.7655e-06
-1.19352e-08
-6.73302e-06
2.80121e-09
-5.96986e-06
4.74807e-09
-5.29912e-06
5.05618e-09
-4.96927e-06
2.66572e-09
-4.45619e-06
-7.75239e-09
-4.36523e-06
-6.21489e-09
-4.73507e-06
-2.22521e-08
-5.28486e-06
-4.89998e-08
-3.91617e-06
-4.4163e-08
-2.81711e-06
-1.51314e-08
-2.7871e-06
-1.63542e-08
-2.45201e-06
-2.63839e-08
-2.0348e-06
-1.10141e-08
-1.95048e-06
-2.58721e-08
-1.31201e-06
-8.45795e-10
-7.74568e-07
2.46257e-08
3.90896e-08
-2.96705e-05
-1.65873e-06
-2.76291e-05
-1.2705e-06
-2.69943e-05
-8.49786e-07
-2.8263e-05
-7.06385e-07
-2.89331e-05
-6.27249e-07
-3.1198e-05
-5.17379e-07
-3.11823e-05
-4.17237e-07
-2.75436e-05
-4.0339e-07
-2.88752e-05
-2.99935e-07
-2.95936e-05
-3.08155e-07
-3.03516e-05
-2.77863e-07
-3.70047e-05
-3.68588e-07
-3.82316e-05
-3.40871e-07
-3.3903e-05
-3.71728e-07
-3.39368e-05
-2.90499e-07
-3.39586e-05
-2.98658e-07
-2.76523e-05
-3.09711e-07
-2.58573e-05
-2.67167e-07
-2.97438e-05
-2.4556e-07
-3.40003e-05
-2.45244e-07
-3.6069e-05
-2.35848e-07
-3.60764e-05
-2.59982e-07
-3.13372e-05
-2.68319e-07
-3.21914e-05
-2.50364e-07
-3.40395e-05
-2.74541e-07
-2.97919e-05
-2.88836e-07
-2.90735e-05
-2.41844e-07
-3.22265e-05
-2.69806e-07
-3.61478e-05
-3.22474e-07
-3.06058e-05
-3.59579e-07
-3.06301e-05
-3.11873e-07
-3.32195e-05
-3.71124e-07
-2.99338e-05
-3.41719e-07
-2.72434e-05
-3.5221e-07
-3.07642e-05
-2.88044e-07
-3.87319e-05
-3.42953e-07
-3.53358e-05
-3.48194e-07
-3.64256e-05
-3.56643e-07
-3.2506e-05
-3.80175e-07
-3.00858e-05
-3.30315e-07
-2.93706e-05
-3.41642e-07
-2.56389e-05
-3.06859e-07
-2.80446e-05
-3.79033e-07
-3.26178e-05
-4.06394e-07
-3.26468e-05
-4.57362e-07
-3.18244e-05
-6.32703e-07
-2.95453e-05
-6.34549e-07
-3.11419e-05
-8.37373e-07
-3.81073e-05
-1.05882e-06
-3.40678e-05
-1.2233e-06
-3.24858e-05
-1.17367e-06
-3.17832e-05
-1.49e-06
-3.13866e-05
-1.63091e-06
-3.07102e-05
1.65725e-06
-2.33617e-05
2.48201e-06
-2.18172e-05
1.84138e-06
-2.43313e-05
8.37323e-07
-1.95974e-05
4.7217e-07
-1.87363e-05
2.619e-07
-1.99353e-05
1.00533e-07
-1.84854e-05
2.48469e-09
-1.74615e-05
-6.00955e-08
-1.58829e-05
-5.34392e-08
-1.72146e-05
-6.55403e-08
-1.58436e-05
-7.23868e-08
-1.31072e-05
-4.91148e-08
-1.15309e-05
-4.17931e-08
-1.30307e-05
-3.56385e-08
-1.46959e-05
-5.55848e-08
-1.15083e-05
-3.92786e-08
-1.05434e-05
-3.16264e-08
-1.04424e-05
-2.64666e-08
-1.02796e-05
-2.37969e-08
-1.12708e-05
-2.34255e-08
-1.06545e-05
-3.56709e-08
-1.07362e-05
-3.05832e-08
-9.93116e-06
-5.10459e-08
-9.36797e-06
-4.01901e-08
-1.11924e-05
-6.5843e-08
-9.03123e-06
-5.44897e-08
-7.36797e-06
-3.38668e-08
-6.65012e-06
-3.84753e-08
-7.16814e-06
-3.91019e-08
-8.65997e-06
-5.8482e-08
-7.772e-06
-5.42719e-08
-7.27178e-06
-3.78817e-08
-6.19634e-06
-4.12635e-08
-5.47869e-06
-1.79836e-08
-6.16894e-06
-2.74673e-08
-4.88473e-06
-1.30958e-08
-3.63578e-06
4.53059e-09
-3.14326e-06
6.92748e-10
-3.05786e-06
-8.46667e-09
-2.85303e-06
-2.71607e-08
-2.42432e-06
-2.35766e-08
-2.00669e-06
-1.96048e-08
-1.36724e-06
5.67121e-09
-9.96687e-07
5.27277e-09
-6.51354e-07
5.80635e-09
-1.03756e-10
-3.38164e-05
-1.8744e-06
-2.88147e-05
-1.13706e-06
-2.62455e-05
-9.28143e-07
-2.89103e-05
-6.49693e-07
-3.12873e-05
-6.27535e-07
-2.75843e-05
-6.02762e-07
-2.89795e-05
-4.20334e-07
-2.97394e-05
-4.35028e-07
-2.57863e-05
-3.66557e-07
-2.58003e-05
-2.98363e-07
-3.05727e-05
-3.00344e-07
-3.1426e-05
-4.07942e-07
-3.06305e-05
-2.91339e-07
-2.98811e-05
-3.53763e-07
-2.65163e-05
-2.69662e-07
-3.07323e-05
-3.09907e-07
-3.7701e-05
-3.3484e-07
-3.43986e-05
-2.90676e-07
-2.85443e-05
-2.69766e-07
-2.5458e-05
-2.52385e-07
-2.60404e-05
-2.49157e-07
-2.93133e-05
-2.59018e-07
-3.17091e-05
-2.58227e-07
-3.08938e-05
-3.14361e-07
-3.26296e-05
-2.55263e-07
-3.09322e-05
-2.65412e-07
-2.80054e-05
-2.41386e-07
-3.09755e-05
-2.93529e-07
-3.36571e-05
-2.87498e-07
-3.4678e-05
-3.60647e-07
-3.27864e-05
-3.51923e-07
-3.10977e-05
-3.24977e-07
-3.19786e-05
-3.49216e-07
-2.96167e-05
-3.61673e-07
-2.6357e-05
-2.89151e-07
-2.69849e-05
-3.00613e-07
-3.04749e-05
-3.05501e-07
-3.21532e-05
-3.19608e-07
-3.21846e-05
-3.21202e-07
-2.9802e-05
-3.18308e-07
-2.59446e-05
-2.98502e-07
-2.91453e-05
-3.1199e-07
-2.99132e-05
-3.82517e-07
-2.54973e-05
-3.52296e-07
-3.00126e-05
-3.74495e-07
-3.16589e-05
-6.17554e-07
-3.26041e-05
-5.46722e-07
-3.66871e-05
-8.84701e-07
-3.11915e-05
-8.67647e-07
-2.78191e-05
-9.35647e-07
-2.62451e-05
-1.08098e-06
-2.967e-05
-1.18148e-06
-3.62429e-05
-1.34278e-06
-3.24004e-05
-5.36809e-07
-2.73657e-05
2.71511e-06
-2.64679e-05
1.83368e-06
-2.04688e-05
1.02318e-06
-2.00767e-05
6.75373e-07
-2.07381e-05
3.01388e-07
-1.98911e-05
1.09126e-07
-1.66873e-05
3.26153e-08
-1.51313e-05
3.00987e-08
-1.49858e-05
1.22089e-08
-1.34877e-05
2.64217e-08
-1.26834e-05
-4.79243e-10
-1.20075e-05
3.85864e-09
-1.10584e-05
-1.21907e-08
-1.21468e-05
-1.26995e-08
-1.38292e-05
-4.23428e-08
-1.15161e-05
-3.97279e-08
-1.0996e-05
-1.77802e-08
-1.15467e-05
-2.64288e-08
-1.20075e-05
-1.55488e-08
-1.24434e-05
-3.42944e-08
-1.10091e-05
-1.95915e-08
-1.15685e-05
-3.20099e-08
-1.0074e-05
-3.29345e-08
-9.32258e-06
-2.54793e-08
-8.83921e-06
-3.46532e-08
-8.79048e-06
-1.08003e-08
-8.37015e-06
-2.93785e-08
-6.38369e-06
1.13216e-09
-6.14889e-06
-6.35802e-09
-6.32466e-06
-2.86577e-08
-6.77899e-06
-3.89081e-08
-6.27059e-06
-4.10762e-08
-5.41383e-06
-2.6083e-08
-4.90797e-06
-1.76183e-08
-4.70976e-06
-1.62839e-08
-4.83308e-06
-1.88565e-08
-4.45044e-06
-8.18259e-09
-4.00518e-06
-1.63932e-08
-3.42826e-06
-2.5175e-08
-2.62347e-06
-1.33581e-08
-2.02425e-06
-9.01851e-09
-1.68731e-06
-7.19288e-09
-1.48502e-06
-2.13782e-08
-1.06399e-06
-2.61985e-08
-7.06408e-07
-4.08934e-08
-3.25238e-08
-2.95283e-05
-1.7135e-06
-2.74903e-05
-1.11239e-06
-2.69435e-05
-9.53201e-07
-2.52292e-05
-6.55882e-07
-3.16166e-05
-5.43945e-07
-3.35446e-05
-4.87383e-07
-3.00616e-05
-4.73549e-07
-3.1774e-05
-3.8215e-07
-2.93652e-05
-3.3551e-07
-2.66634e-05
-3.08311e-07
-3.1884e-05
-2.96106e-07
-3.10602e-05
-3.66806e-07
-2.87673e-05
-3.12822e-07
-2.81034e-05
-3.44333e-07
-2.9583e-05
-2.61686e-07
-3.39738e-05
-3.51807e-07
-2.82036e-05
-3.23251e-07
-2.63073e-05
-2.50004e-07
-2.82596e-05
-2.92564e-07
-3.05188e-05
-2.87875e-07
-3.1372e-05
-3.09659e-07
-2.90455e-05
-2.66075e-07
-3.23017e-05
-2.64765e-07
-3.23305e-05
-2.79894e-07
-2.5888e-05
-2.82059e-07
-2.48095e-05
-2.28562e-07
-2.84676e-05
-2.43064e-07
-2.92082e-05
-3.13285e-07
-3.07776e-05
-2.53672e-07
-3.44371e-05
-2.79661e-07
-3.08493e-05
-2.73356e-07
-3.08891e-05
-3.16923e-07
-3.26483e-05
-3.60952e-07
-2.87043e-05
-3.43703e-07
-2.74043e-05
-2.74565e-07
-2.87764e-05
-2.87177e-07
-2.7471e-05
-3.24342e-07
-2.75046e-05
-2.91856e-07
-2.69135e-05
-2.927e-07
-2.57784e-05
-2.96039e-07
-2.69905e-05
-2.8823e-07
-2.76634e-05
-2.84798e-07
-2.64822e-05
-3.45797e-07
-2.54086e-05
-3.80428e-07
-2.9199e-05
-3.28749e-07
-3.15932e-05
-4.87971e-07
-3.25612e-05
-4.52391e-07
-3.45685e-05
-6.69638e-07
-3.20091e-05
-6.22706e-07
-3.40088e-05
-8.08409e-07
-3.52625e-05
-8.45512e-07
-2.96975e-05
-1.05702e-06
-2.95012e-05
-8.47149e-07
-3.79578e-05
-4.6843e-07
-3.31351e-05
1.32352e-06
-2.23822e-05
1.60139e-06
-2.21828e-05
1.24292e-06
-2.17856e-05
9.26722e-07
-1.7806e-05
5.72515e-07
-1.52489e-05
2.59293e-07
-1.43593e-05
1.04138e-07
-1.44123e-05
8.31403e-08
-1.64145e-05
3.16429e-08
-1.56941e-05
1.33725e-08
-1.42291e-05
2.46018e-08
-1.35888e-05
3.6733e-09
-1.2378e-05
-3.89609e-10
-1.29624e-05
-1.10638e-08
-1.16472e-05
-2.06801e-08
-1.12294e-05
-1.79121e-08
-1.1112e-05
-7.59666e-09
-1.15532e-05
1.88805e-09
-1.18336e-05
-1.14009e-08
-1.24215e-05
-2.30582e-08
-1.08665e-05
-2.48201e-08
-1.03192e-05
-8.57588e-09
-1.03813e-05
-3.63293e-08
-8.30288e-06
-1.37351e-08
-8.93557e-06
-1.24526e-08
-8.89537e-06
-6.97682e-09
-8.43299e-06
-1.14918e-08
-9.63761e-06
-5.35797e-09
-7.84386e-06
-1.27744e-08
-6.06795e-06
1.99375e-08
-5.60146e-06
2.63791e-08
-5.1209e-06
1.45111e-08
-4.9633e-06
2.67173e-08
-4.73342e-06
2.45717e-08
-4.25028e-06
2.53353e-08
-4.53527e-06
1.65175e-08
-4.92169e-06
2.21911e-10
-3.72178e-06
-6.84057e-09
-2.93505e-06
6.03913e-09
-2.60203e-06
1.65589e-08
-2.26349e-06
1.72752e-09
-2.00753e-06
1.02676e-08
-1.63303e-06
1.66342e-08
-1.17701e-06
2.41467e-08
-6.73158e-07
1.77554e-08
9.8398e-09
-3.41115e-05
-1.2073e-06
-3.43824e-05
-9.11921e-07
-3.25743e-05
-8.32994e-07
-3.00891e-05
-6.37358e-07
-2.54038e-05
-4.16432e-07
-2.80316e-05
-3.59177e-07
-3.12258e-05
-3.73679e-07
-2.5602e-05
-3.00832e-07
-2.5648e-05
-2.56569e-07
-2.75707e-05
-2.61115e-07
-2.90309e-05
-2.62699e-07
-3.33531e-05
-3.06103e-07
-3.54945e-05
-3.01028e-07
-3.07468e-05
-3.33379e-07
-3.07945e-05
-2.27454e-07
-3.56575e-05
-2.8802e-07
-3.17388e-05
-3.08889e-07
-3.26889e-05
-2.6189e-07
-3.69532e-05
-3.0751e-07
-3.6998e-05
-2.48383e-07
-3.37736e-05
-2.3873e-07
-3.19363e-05
-2.17605e-07
-3.0292e-05
-2.58989e-07
-3.20136e-05
-2.26383e-07
-3.20512e-05
-3.04294e-07
-2.81766e-05
-2.19702e-07
-3.21294e-05
-2.39134e-07
-3.13e-05
-3.05089e-07
-2.57689e-05
-2.46908e-07
-2.4191e-05
-2.50418e-07
-2.83602e-05
-2.3288e-07
-3.63888e-05
-3.00597e-07
-3.6442e-05
-3.45768e-07
-3.07323e-05
-2.69886e-07
-2.71972e-05
-2.85408e-07
-3.08186e-05
-2.52644e-07
-3.35071e-05
-2.65387e-07
-3.01147e-05
-2.50593e-07
-3.09551e-05
-2.39241e-07
-3.10057e-05
-3.19911e-07
-2.68262e-05
-2.60726e-07
-2.8849e-05
-2.71972e-07
-3.70453e-05
-3.31641e-07
-3.04727e-05
-3.95156e-07
-2.77227e-05
-2.88049e-07
-2.848e-05
-3.29344e-07
-2.9294e-05
-4.02019e-07
-2.94342e-05
-5.03735e-07
-2.96023e-05
-4.1014e-07
-2.98002e-05
-6.03493e-07
-3.07738e-05
-6.41717e-07
-3.44522e-05
-8.10792e-07
-3.11286e-05
-7.61944e-07
-3.10642e-05
-1.05332e-06
-2.783e-05
-6.88466e-08
-2.13702e-05
1.81578e-06
-2.20518e-05
1.00142e-06
-2.47379e-05
4.65194e-07
-2.20883e-05
1.97918e-07
-1.63762e-05
1.04939e-07
-1.59931e-05
6.89068e-09
-1.72414e-05
-4.21779e-08
-1.65095e-05
-3.93877e-08
-1.74647e-05
-4.48952e-08
-1.74398e-05
-3.86947e-08
-1.4382e-05
-4.43777e-08
-1.30866e-05
-1.20962e-08
-1.2763e-05
-3.95481e-08
-1.06928e-05
-2.48582e-08
-1.04888e-05
-2.60396e-08
-1.25574e-05
-2.73603e-08
-1.51386e-05
-5.99683e-08
-1.22851e-05
-5.56174e-08
-1.1142e-05
-3.43276e-08
-1.21047e-05
-4.28447e-08
-9.97378e-06
-3.47894e-08
-8.44329e-06
-2.55725e-08
-8.08244e-06
-2.76798e-08
-9.06792e-06
-3.08018e-08
-8.85682e-06
-5.56068e-08
-8.07573e-06
-3.7989e-08
-7.63443e-06
-5.72579e-08
-6.58592e-06
-3.5734e-08
-7.6802e-06
-4.10917e-08
-6.59e-06
-4.49173e-08
-5.73788e-06
-2.20475e-08
-6.16318e-06
-3.52207e-08
-5.89558e-06
-3.45708e-08
-5.81687e-06
-3.6659e-08
-5.74067e-06
-4.39969e-08
-4.51211e-06
-3.18467e-08
-3.24788e-06
-1.88384e-08
-3.19549e-06
-2.19266e-08
-2.91574e-06
-4.88288e-08
-2.12279e-06
-2.97642e-08
-2.00528e-06
-4.26935e-08
-1.7331e-06
-4.41951e-08
-1.35985e-06
-3.68076e-08
-7.58912e-07
-3.47053e-08
-1.4001e-08
-2.25845e-05
-7.28345e-07
-2.71151e-05
-5.21764e-07
-3.25214e-05
-4.82279e-07
-2.55765e-05
-3.92925e-07
-2.39719e-05
-2.75968e-07
-2.52278e-05
-2.66729e-07
-2.36337e-05
-2.3956e-07
-2.31929e-05
-2.25759e-07
-2.27609e-05
-2.03913e-07
-2.38326e-05
-2.01979e-07
-2.82912e-05
-2.07523e-07
-2.99332e-05
-2.30979e-07
-3.17699e-05
-2.22561e-07
-2.77589e-05
-2.40684e-07
-2.52347e-05
-1.88056e-07
-3.10689e-05
-1.9656e-07
-3.3019e-05
-2.08834e-07
-3.30863e-05
-1.99391e-07
-2.87889e-05
-2.15745e-07
-2.38278e-05
-1.62793e-07
-2.3365e-05
-1.52037e-07
-2.68379e-05
-1.76304e-07
-2.97955e-05
-1.89765e-07
-3.24882e-05
-1.87975e-07
-3.0738e-05
-1.86763e-07
-2.77173e-05
-1.61734e-07
-3.26708e-05
-1.78252e-07
-3.37236e-05
-1.98448e-07
-3.37897e-05
-1.79997e-07
-3.28604e-05
-2.30402e-07
-3.1097e-05
-1.88511e-07
-3.50553e-05
-2.1338e-07
-3.03784e-05
-2.2072e-07
-2.9641e-05
-2.06718e-07
-3.13479e-05
-2.07691e-07
-2.56979e-05
-1.91771e-07
-2.41064e-05
-1.82372e-07
-2.41584e-05
-2.01745e-07
-2.91823e-05
-1.82831e-07
-3.1684e-05
-2.20167e-07
-3.09117e-05
-1.8625e-07
-3.47548e-05
-2.33055e-07
-3.59545e-05
-2.07294e-07
-3.29838e-05
-2.47213e-07
-2.69555e-05
-1.98302e-07
-3.06449e-05
-2.36299e-07
-3.77517e-05
-2.628e-07
-2.94274e-05
-3.25335e-07
-2.82234e-05
-2.96382e-07
-3.62009e-05
-3.20085e-07
-3.76572e-05
-4.45093e-07
-3.04146e-05
-4.16419e-07
-2.99716e-05
-4.95087e-07
-3.45808e-05
-8.90921e-07
-3.51198e-05
-1.03743e-06
-2.87549e-05
1.28708e-06
-2.21441e-05
1.28619e-06
-2.06622e-05
3.35261e-07
-2.00824e-05
8.55927e-08
-1.76993e-05
1.63485e-08
-1.47077e-05
-3.5388e-08
-1.40504e-05
-6.57402e-09
-1.43899e-05
-3.80448e-08
-1.66389e-05
-5.11444e-08
-1.58093e-05
-7.95443e-08
-1.51915e-05
-5.05957e-08
-1.41067e-05
-5.11215e-08
-1.19943e-05
-2.96305e-08
-1.13653e-05
-3.41269e-08
-1.22404e-05
-3.32467e-08
-1.23199e-05
-5.99959e-08
-1.02343e-05
-4.41817e-08
-1.05729e-05
-5.24569e-08
-1.07245e-05
-6.73099e-08
-1.17893e-05
-7.55059e-08
-1.21873e-05
-9.95599e-08
-1.04417e-05
-7.85809e-08
-9.28482e-06
-6.427e-08
-9.56267e-06
-5.70275e-08
-9.54556e-06
-7.77821e-08
-7.78553e-06
-5.76389e-08
-6.75042e-06
-4.58176e-08
-6.76028e-06
-4.43575e-08
-6.6314e-06
-5.07642e-08
-6.03428e-06
-3.48061e-08
-6.12107e-06
-4.02551e-08
-5.59395e-06
-4.09516e-08
-5.87763e-06
-3.69616e-08
-5.19588e-06
-5.37206e-08
-4.5921e-06
-2.3385e-08
-4.76947e-06
-2.66496e-08
-3.90314e-06
-3.28343e-10
-3.39874e-06
-1.42314e-08
-2.58481e-06
-3.24004e-09
-2.21424e-06
7.12709e-09
-1.80662e-06
-6.75692e-09
-1.48214e-06
-1.51707e-09
-1.24986e-06
1.3286e-08
-6.08622e-07
1.55804e-08
7.73805e-10
-2.2685e-05
-2.12276e-05
-2.04249e-05
-2.18104e-05
-2.08521e-05
-2.10098e-05
-2.36354e-05
-2.30932e-05
-2.32147e-05
-2.40171e-05
-2.27912e-05
-2.42463e-05
-2.436e-05
-2.44744e-05
-2.25913e-05
-1.95233e-05
-1.91598e-05
-2.06496e-05
-1.97717e-05
-1.77841e-05
-2.14319e-05
-2.45966e-05
-2.33695e-05
-2.06724e-05
-1.85517e-05
-1.99004e-05
-2.04493e-05
-1.96237e-05
-2.21745e-05
-2.34398e-05
-2.23671e-05
-2.24627e-05
-2.50712e-05
-2.32386e-05
-1.93652e-05
-2.12532e-05
-2.54961e-05
-2.56078e-05
-2.15358e-05
-2.02242e-05
-2.22621e-05
-2.2377e-05
-2.2511e-05
-2.21178e-05
-2.45682e-05
-2.53817e-05
-2.43285e-05
-3.06796e-05
-2.60795e-05
-2.44648e-05
-2.41706e-05
-2.34333e-05
-2.69439e-05
-2.57823e-05
-2.48197e-05
-2.73794e-05
-2.62311e-05
-1.94613e-05
-1.98134e-05
-1.65827e-05
-1.54514e-05
-1.69313e-05
-1.61046e-05
-1.57667e-05
-1.35927e-05
-1.50754e-05
-1.56719e-05
-1.47137e-05
-1.3901e-05
-1.38342e-05
-1.39474e-05
-1.35019e-05
-1.27844e-05
-1.16466e-05
-1.07129e-05
-8.68487e-06
-8.64635e-06
-9.79831e-06
-8.95415e-06
-7.58571e-06
-7.70055e-06
-7.28987e-06
-6.19471e-06
-6.61456e-06
-6.61391e-06
-5.94052e-06
-5.66464e-06
-5.10449e-06
-4.13884e-06
-4.18586e-06
-4.82588e-06
-4.25044e-06
-3.11045e-06
-2.82346e-06
-2.51722e-06
-1.70076e-06
-1.3902e-06
-1.36296e-06
-7.35603e-07
)
;

boundaryField
{
    inlet
    {
        type            fixedValue;
        value           uniform 0;
    }
    outlet
    {
        type            calculated;
        value           nonuniform List<scalar> 10(3.40826e-05 4.48844e-05 3.26945e-05 3.43005e-05 2.9583e-05 3.58399e-05 3.72616e-05 3.18278e-05 2.26234e-05 2.11799e-05);
    }
    walls
    {
        type            fixedValue;
        value           uniform 0;
    }
}


// ************************************************************************* //
