/*--------------------------------*- C++ -*----------------------------------*\
| =========                 |                                                 |
| \\      /  F ield         | foam-extend: Open Source CFD                    |
|  \\    /   O peration     | Version:     5.0                                |
|   \\  /    A nd           | Web:         http://www.foam-extend.org         |
|    \\/     M anipulation  |                                                 |
\*---------------------------------------------------------------------------*/
FoamFile
{
    version     2.0;
    format      ascii;
    class       volScalarField;
    location    "10000";
    object      S.gas;
}
// * * * * * * * * * * * * * * * * * * * * * * * * * * * * * * * * * * * * * //

dimensions      [0 0 0 0 0 0 0];

internalField   nonuniform List<scalar> 
1000
(
2.79241e-16
1.0079e-13
7.4805e-12
3.19877e-11
8.08317e-11
2.98974e-10
1.62952e-09
1.08386e-09
3.62561e-09
6.15301e-09
7.45187e-09
9.9943e-09
1.21952e-08
1.24821e-07
3.03135e-06
2.46768e-05
6.26295e-05
6.90745e-05
0.000124495
0.00014579
0.000184049
0.000282741
0.000359288
0.000362131
0.000489216
0.000586736
0.000596759
0.000591974
0.000697329
0.00108238
0.00112958
0.00139252
0.00916417
0.0264581
0.0377298
0.0416217
0.043808
0.0449875
0.0459028
0.0468403
0.0477783
0.0487246
0.0497272
0.0507568
0.0518549
0.0529919
0.0541901
0.055437
0.0567505
0.0581346
0.057995
0.0492346
0.0437695
0.0449025
0.0475663
0.0497207
0.0518626
0.0534811
0.0552139
0.0567927
0.0583402
0.0599027
0.0615343
0.0633243
0.065049
0.066805
0.0687202
0.0705997
0.0726111
0.0746337
0.076734
0.0788934
0.0812404
0.0835568
0.0860499
0.0886508
0.0913657
0.0941692
0.0970992
0.100089
0.10341
0.106818
0.1104
0.114172
0.117992
0.12206
0.126582
0.131066
0.13627
0.141681
0.147551
0.153238
0.159665
0.166887
0.174246
0.182065
0.190991
0.201003
0.212493
0.223914
4.29944e-07
6.86723e-06
3.96151e-05
7.13422e-05
9.10404e-05
0.000144185
0.00028959
0.000249203
0.000366567
0.000463719
0.000594479
0.000625972
0.000837802
0.00650037
0.0261104
0.0432161
0.0529311
0.0553376
0.0572552
0.0587901
0.0602954
0.061788
0.0633226
0.0648743
0.066466
0.0680924
0.0697592
0.0714642
0.073185
0.0749361
0.076673
0.0783886
0.0798821
0.0811915
0.0824958
0.0837193
0.0848569
0.0860038
0.0870894
0.0881831
0.0893
0.0903358
0.091406
0.092425
0.0934154
0.0944506
0.0953843
0.096299
0.0970713
0.0975054
0.0969561
0.0914705
0.0783405
0.0780289
0.082614
0.0874316
0.0915501
0.0946574
0.0973347
0.100101
0.102627
0.104892
0.10701
0.109195
0.111422
0.113721
0.11587
0.118305
0.12056
0.122877
0.125231
0.127741
0.130372
0.133168
0.135891
0.138566
0.141216
0.143913
0.146909
0.149812
0.153191
0.156217
0.159414
0.163064
0.166287
0.169595
0.173603
0.177343
0.181191
0.184952
0.18935
0.193939
0.198903
0.203295
0.207468
0.212113
0.217294
0.222208
0.227048
0.231676
0.0109247
0.0394456
0.0609124
0.0668416
0.0703466
0.0732261
0.075312
0.0773838
0.0794819
0.081632
0.0837705
0.0860224
0.0882848
0.090303
0.092121
0.0939162
0.0955865
0.0970287
0.0984277
0.0998018
0.101164
0.102538
0.103903
0.105261
0.106614
0.107947
0.109274
0.110613
0.111919
0.113208
0.11444
0.115555
0.116575
0.117514
0.118468
0.119445
0.120509
0.121571
0.122609
0.123612
0.124657
0.125715
0.126687
0.127701
0.128581
0.129421
0.130229
0.130891
0.131281
0.131286
0.130767
0.12876
0.11673
0.106428
0.109971
0.116319
0.121278
0.124456
0.127098
0.129475
0.131934
0.13397
0.135855
0.137855
0.13977
0.141904
0.144057
0.145985
0.147946
0.149864
0.151994
0.154268
0.156336
0.158268
0.16062
0.162818
0.16515
0.16747
0.169427
0.171697
0.174148
0.176743
0.179409
0.181708
0.184464
0.187066
0.189591
0.192399
0.195487
0.198389
0.201764
0.204235
0.206945
0.209919
0.212843
0.215735
0.218897
0.223175
0.226403
0.230946
0.109823
0.109889
0.11077
0.112065
0.113395
0.114711
0.116051
0.117429
0.118827
0.120212
0.121564
0.122874
0.12411
0.125224
0.126234
0.127241
0.128296
0.129331
0.130393
0.131454
0.132519
0.133529
0.134573
0.135581
0.136561
0.13757
0.138549
0.139537
0.140516
0.141431
0.142311
0.143176
0.144008
0.144768
0.145572
0.146376
0.147186
0.147983
0.1488
0.149617
0.15037
0.15112
0.15188
0.152578
0.153234
0.153889
0.154435
0.154919
0.155233
0.155327
0.155066
0.154625
0.150208
0.132605
0.127094
0.133192
0.137566
0.141633
0.144058
0.146427
0.148461
0.1503
0.152279
0.153815
0.155364
0.157064
0.158557
0.160406
0.161968
0.163754
0.165509
0.166938
0.168406
0.169989
0.171414
0.173316
0.174927
0.176933
0.178499
0.180164
0.181924
0.183478
0.185404
0.187435
0.18945
0.191413
0.193786
0.196073
0.198652
0.201237
0.203734
0.205716
0.207635
0.210817
0.213976
0.216775
0.220522
0.223365
0.227003
0.230934
0.140455
0.140391
0.140629
0.141131
0.141798
0.142563
0.143387
0.144247
0.145117
0.145973
0.146825
0.147632
0.148424
0.149188
0.149917
0.150618
0.151349
0.152063
0.152743
0.153431
0.154141
0.154848
0.155557
0.15625
0.156911
0.157594
0.158249
0.158883
0.159509
0.16013
0.160737
0.16129
0.161853
0.162379
0.162898
0.163393
0.163922
0.16444
0.164938
0.165439
0.165888
0.166341
0.166751
0.167138
0.167529
0.167899
0.168227
0.168503
0.16869
0.168791
0.168777
0.168583
0.167102
0.150034
0.13778
0.140583
0.145794
0.148932
0.151355
0.154057
0.155693
0.157493
0.158931
0.160547
0.161963
0.163216
0.164676
0.166242
0.167906
0.169041
0.170397
0.171989
0.173487
0.175076
0.17657
0.177909
0.179513
0.180749
0.182529
0.183797
0.18515
0.186896
0.188798
0.190858
0.192403
0.193885
0.195673
0.197208
0.199472
0.20119
0.202922
0.205389
0.208297
0.211355
0.214058
0.217258
0.220252
0.224257
0.228736
0.233098
0.159243
0.159184
0.159298
0.15956
0.159936
0.160392
0.160894
0.161417
0.161961
0.162496
0.163018
0.163526
0.164038
0.164511
0.164985
0.165426
0.165861
0.166321
0.166783
0.167221
0.16764
0.168042
0.168449
0.168856
0.16926
0.169648
0.170042
0.170404
0.170764
0.171119
0.171465
0.171796
0.172107
0.172406
0.172698
0.172966
0.17322
0.17347
0.17372
0.173954
0.17418
0.17438
0.174562
0.174764
0.174936
0.175094
0.175256
0.175375
0.175476
0.175524
0.17551
0.175435
0.175276
0.171094
0.151106
0.142833
0.145772
0.149767
0.152949
0.155213
0.156995
0.158686
0.160549
0.162098
0.163617
0.165198
0.166666
0.16823
0.169773
0.170938
0.172113
0.173667
0.174861
0.176253
0.17727
0.178545
0.179778
0.18088
0.182427
0.18364
0.18533
0.186477
0.188335
0.190264
0.192184
0.193935
0.195586
0.197585
0.199707
0.202036
0.204191
0.206366
0.208771
0.211156
0.21408
0.217582
0.221656
0.225323
0.229492
0.233323
0.171268
0.171173
0.171192
0.171314
0.171503
0.171744
0.172019
0.172309
0.172607
0.172908
0.173199
0.173482
0.173767
0.174028
0.174288
0.174528
0.174779
0.175022
0.175246
0.175468
0.175686
0.175904
0.176116
0.176316
0.176527
0.176717
0.176895
0.177069
0.177249
0.177415
0.177586
0.177747
0.177897
0.178045
0.178186
0.178313
0.178439
0.178555
0.17866
0.178758
0.178839
0.178909
0.178974
0.179027
0.179067
0.179096
0.179141
0.179166
0.179196
0.179209
0.179211
0.179201
0.179168
0.178883
0.170048
0.150521
0.145147
0.149227
0.152189
0.155061
0.157672
0.160051
0.161895
0.163542
0.164588
0.166112
0.167187
0.168669
0.169815
0.171065
0.172385
0.173662
0.174942
0.176053
0.177235
0.178183
0.179673
0.18066
0.182157
0.183696
0.184923
0.18647
0.187773
0.188922
0.190741
0.19263
0.194706
0.196907
0.199029
0.201371
0.203852
0.205661
0.20779
0.210707
0.213745
0.21707
0.220351
0.223709
0.227441
0.231762
0.185328
0.184889
0.184618
0.184463
0.184388
0.184368
0.184387
0.184418
0.184464
0.184517
0.184564
0.184608
0.184644
0.184674
0.184699
0.184715
0.184731
0.184742
0.184746
0.184753
0.184756
0.184758
0.184753
0.184749
0.184739
0.184732
0.184719
0.184707
0.184695
0.184682
0.18467
0.184657
0.184641
0.184621
0.184599
0.184574
0.184543
0.184504
0.184456
0.184396
0.184329
0.184248
0.184148
0.184058
0.18397
0.183861
0.183769
0.183681
0.183609
0.183553
0.183502
0.183469
0.183423
0.183254
0.175706
0.154114
0.149361
0.153929
0.15705
0.159219
0.161447
0.163759
0.165104
0.166531
0.167649
0.168735
0.16971
0.171106
0.172169
0.173532
0.174968
0.176297
0.177211
0.178118
0.179417
0.180486
0.181586
0.183103
0.184625
0.186273
0.187384
0.18914
0.190418
0.1924
0.194098
0.195595
0.197786
0.199614
0.20151
0.203381
0.205211
0.206959
0.209684
0.212808
0.215181
0.21882
0.222171
0.22551
0.228789
0.232551
0.23522
0.233204
0.23178
0.230646
0.22974
0.229026
0.228379
0.227808
0.227285
0.226784
0.226298
0.225797
0.225274
0.224757
0.224221
0.223709
0.223176
0.222633
0.222093
0.221551
0.221018
0.220485
0.219953
0.219421
0.218894
0.218367
0.217853
0.217344
0.216831
0.21633
0.215822
0.21533
0.214831
0.214322
0.213837
0.213322
0.212811
0.212296
0.211754
0.211182
0.21059
0.20997
0.209344
0.208703
0.208057
0.20738
0.206681
0.205994
0.205282
0.204524
0.203751
0.202948
0.202093
0.20114
0.19822
0.178466
0.16368
0.165575
0.169825
0.173066
0.175234
0.177535
0.179298
0.18079
0.181881
0.18262
0.183657
0.184342
0.185444
0.186406
0.187554
0.188161
0.1892
0.190191
0.191083
0.191978
0.192546
0.193337
0.194201
0.195226
0.195869
0.196853
0.198008
0.199412
0.200423
0.201839
0.203073
0.204344
0.205793
0.206676
0.208626
0.209662
0.21154
0.213157
0.215592
0.218346
0.22126
0.224826
0.227663
0.232213
0.438584
0.433098
0.429079
0.425954
0.423289
0.420956
0.418888
0.416924
0.415007
0.413229
0.411409
0.409652
0.407896
0.406093
0.40433
0.402517
0.400793
0.399071
0.397339
0.395544
0.393822
0.392083
0.390223
0.3884
0.38655
0.384754
0.38293
0.381076
0.379226
0.377389
0.375487
0.373635
0.371761
0.36992
0.367996
0.366202
0.364399
0.362544
0.360608
0.358701
0.356785
0.354804
0.352721
0.350594
0.348375
0.346076
0.343711
0.341244
0.338711
0.33609
0.333313
0.330442
0.327336
0.323885
0.319377
0.305568
0.271251
0.266358
0.272514
0.27768
0.280171
0.283337
0.28395
0.284849
0.284757
0.284996
0.285035
0.284568
0.2843
0.28385
0.283544
0.282787
0.282198
0.28132
0.280636
0.279744
0.279013
0.27867
0.277711
0.276716
0.275786
0.275173
0.273872
0.273311
0.272308
0.271059
0.269715
0.26852
0.266833
0.265626
0.264447
0.262396
0.259864
0.257893
0.256161
0.253382
0.251275
0.249295
0.245232
0.241213
)
;

boundaryField
{
    inlet
    {
        type            calculated;
        value           uniform 0.5;
    }
    outlet
    {
        type            calculated;
        value           nonuniform List<scalar> 10(2.79241e-16 4.29944e-07 0.0109247 0.109823 0.140455 0.159243 0.171268 0.185328 0.23522 0.438584);
    }
    walls
    {
        type            calculated;
        value           nonuniform List<scalar> 
2200
(
2.79241e-16
1.0079e-13
7.4805e-12
3.19877e-11
8.08317e-11
2.98974e-10
1.62952e-09
1.08386e-09
3.62561e-09
6.15301e-09
7.45187e-09
9.9943e-09
1.21952e-08
1.24821e-07
3.03135e-06
2.46768e-05
6.26295e-05
6.90745e-05
0.000124495
0.00014579
0.000184049
0.000282741
0.000359288
0.000362131
0.000489216
0.000586736
0.000596759
0.000591974
0.000697329
0.00108238
0.00112958
0.00139252
0.00916417
0.0264581
0.0377298
0.0416217
0.043808
0.0449875
0.0459028
0.0468403
0.0477783
0.0487246
0.0497272
0.0507568
0.0518549
0.0529919
0.0541901
0.055437
0.0567505
0.0581346
0.057995
0.0492346
0.0437695
0.0449025
0.0475663
0.0497207
0.0518626
0.0534811
0.0552139
0.0567927
0.0583402
0.0599027
0.0615343
0.0633243
0.065049
0.066805
0.0687202
0.0705997
0.0726111
0.0746337
0.076734
0.0788934
0.0812404
0.0835568
0.0860499
0.0886508
0.0913657
0.0941692
0.0970992
0.100089
0.10341
0.106818
0.1104
0.114172
0.117992
0.12206
0.126582
0.131066
0.13627
0.141681
0.147551
0.153238
0.159665
0.166887
0.174246
0.182065
0.190991
0.201003
0.212493
0.223914
4.29944e-07
6.86723e-06
3.96151e-05
7.13422e-05
9.10404e-05
0.000144185
0.00028959
0.000249203
0.000366567
0.000463719
0.000594479
0.000625972
0.000837802
0.00650037
0.0261104
0.0432161
0.0529311
0.0553376
0.0572552
0.0587901
0.0602954
0.061788
0.0633226
0.0648743
0.066466
0.0680924
0.0697592
0.0714642
0.073185
0.0749361
0.076673
0.0783886
0.0798821
0.0811915
0.0824958
0.0837193
0.0848569
0.0860038
0.0870894
0.0881831
0.0893
0.0903358
0.091406
0.092425
0.0934154
0.0944506
0.0953843
0.096299
0.0970713
0.0975054
0.0969561
0.0914705
0.0783405
0.0780289
0.082614
0.0874316
0.0915501
0.0946574
0.0973347
0.100101
0.102627
0.104892
0.10701
0.109195
0.111422
0.113721
0.11587
0.118305
0.12056
0.122877
0.125231
0.127741
0.130372
0.133168
0.135891
0.138566
0.141216
0.143913
0.146909
0.149812
0.153191
0.156217
0.159414
0.163064
0.166287
0.169595
0.173603
0.177343
0.181191
0.184952
0.18935
0.193939
0.198903
0.203295
0.207468
0.212113
0.217294
0.222208
0.227048
0.231676
0.0109247
0.0394456
0.0609124
0.0668416
0.0703466
0.0732261
0.075312
0.0773838
0.0794819
0.081632
0.0837705
0.0860224
0.0882848
0.090303
0.092121
0.0939162
0.0955865
0.0970287
0.0984277
0.0998018
0.101164
0.102538
0.103903
0.105261
0.106614
0.107947
0.109274
0.110613
0.111919
0.113208
0.11444
0.115555
0.116575
0.117514
0.118468
0.119445
0.120509
0.121571
0.122609
0.123612
0.124657
0.125715
0.126687
0.127701
0.128581
0.129421
0.130229
0.130891
0.131281
0.131286
0.130767
0.12876
0.11673
0.106428
0.109971
0.116319
0.121278
0.124456
0.127098
0.129475
0.131934
0.13397
0.135855
0.137855
0.13977
0.141904
0.144057
0.145985
0.147946
0.149864
0.151994
0.154268
0.156336
0.158268
0.16062
0.162818
0.16515
0.16747
0.169427
0.171697
0.174148
0.176743
0.179409
0.181708
0.184464
0.187066
0.189591
0.192399
0.195487
0.198389
0.201764
0.204235
0.206945
0.209919
0.212843
0.215735
0.218897
0.223175
0.226403
0.230946
0.109823
0.109889
0.11077
0.112065
0.113395
0.114711
0.116051
0.117429
0.118827
0.120212
0.121564
0.122874
0.12411
0.125224
0.126234
0.127241
0.128296
0.129331
0.130393
0.131454
0.132519
0.133529
0.134573
0.135581
0.136561
0.13757
0.138549
0.139537
0.140516
0.141431
0.142311
0.143176
0.144008
0.144768
0.145572
0.146376
0.147186
0.147983
0.1488
0.149617
0.15037
0.15112
0.15188
0.152578
0.153234
0.153889
0.154435
0.154919
0.155233
0.155327
0.155066
0.154625
0.150208
0.132605
0.127094
0.133192
0.137566
0.141633
0.144058
0.146427
0.148461
0.1503
0.152279
0.153815
0.155364
0.157064
0.158557
0.160406
0.161968
0.163754
0.165509
0.166938
0.168406
0.169989
0.171414
0.173316
0.174927
0.176933
0.178499
0.180164
0.181924
0.183478
0.185404
0.187435
0.18945
0.191413
0.193786
0.196073
0.198652
0.201237
0.203734
0.205716
0.207635
0.210817
0.213976
0.216775
0.220522
0.223365
0.227003
0.230934
0.140455
0.140391
0.140629
0.141131
0.141798
0.142563
0.143387
0.144247
0.145117
0.145973
0.146825
0.147632
0.148424
0.149188
0.149917
0.150618
0.151349
0.152063
0.152743
0.153431
0.154141
0.154848
0.155557
0.15625
0.156911
0.157594
0.158249
0.158883
0.159509
0.16013
0.160737
0.16129
0.161853
0.162379
0.162898
0.163393
0.163922
0.16444
0.164938
0.165439
0.165888
0.166341
0.166751
0.167138
0.167529
0.167899
0.168227
0.168503
0.16869
0.168791
0.168777
0.168583
0.167102
0.150034
0.13778
0.140583
0.145794
0.148932
0.151355
0.154057
0.155693
0.157493
0.158931
0.160547
0.161963
0.163216
0.164676
0.166242
0.167906
0.169041
0.170397
0.171989
0.173487
0.175076
0.17657
0.177909
0.179513
0.180749
0.182529
0.183797
0.18515
0.186896
0.188798
0.190858
0.192403
0.193885
0.195673
0.197208
0.199472
0.20119
0.202922
0.205389
0.208297
0.211355
0.214058
0.217258
0.220252
0.224257
0.228736
0.233098
0.159243
0.159184
0.159298
0.15956
0.159936
0.160392
0.160894
0.161417
0.161961
0.162496
0.163018
0.163526
0.164038
0.164511
0.164985
0.165426
0.165861
0.166321
0.166783
0.167221
0.16764
0.168042
0.168449
0.168856
0.16926
0.169648
0.170042
0.170404
0.170764
0.171119
0.171465
0.171796
0.172107
0.172406
0.172698
0.172966
0.17322
0.17347
0.17372
0.173954
0.17418
0.17438
0.174562
0.174764
0.174936
0.175094
0.175256
0.175375
0.175476
0.175524
0.17551
0.175435
0.175276
0.171094
0.151106
0.142833
0.145772
0.149767
0.152949
0.155213
0.156995
0.158686
0.160549
0.162098
0.163617
0.165198
0.166666
0.16823
0.169773
0.170938
0.172113
0.173667
0.174861
0.176253
0.17727
0.178545
0.179778
0.18088
0.182427
0.18364
0.18533
0.186477
0.188335
0.190264
0.192184
0.193935
0.195586
0.197585
0.199707
0.202036
0.204191
0.206366
0.208771
0.211156
0.21408
0.217582
0.221656
0.225323
0.229492
0.233323
0.171268
0.171173
0.171192
0.171314
0.171503
0.171744
0.172019
0.172309
0.172607
0.172908
0.173199
0.173482
0.173767
0.174028
0.174288
0.174528
0.174779
0.175022
0.175246
0.175468
0.175686
0.175904
0.176116
0.176316
0.176527
0.176717
0.176895
0.177069
0.177249
0.177415
0.177586
0.177747
0.177897
0.178045
0.178186
0.178313
0.178439
0.178555
0.17866
0.178758
0.178839
0.178909
0.178974
0.179027
0.179067
0.179096
0.179141
0.179166
0.179196
0.179209
0.179211
0.179201
0.179168
0.178883
0.170048
0.150521
0.145147
0.149227
0.152189
0.155061
0.157672
0.160051
0.161895
0.163542
0.164588
0.166112
0.167187
0.168669
0.169815
0.171065
0.172385
0.173662
0.174942
0.176053
0.177235
0.178183
0.179673
0.18066
0.182157
0.183696
0.184923
0.18647
0.187773
0.188922
0.190741
0.19263
0.194706
0.196907
0.199029
0.201371
0.203852
0.205661
0.20779
0.210707
0.213745
0.21707
0.220351
0.223709
0.227441
0.231762
0.185328
0.184889
0.184618
0.184463
0.184388
0.184368
0.184387
0.184418
0.184464
0.184517
0.184564
0.184608
0.184644
0.184674
0.184699
0.184715
0.184731
0.184742
0.184746
0.184753
0.184756
0.184758
0.184753
0.184749
0.184739
0.184732
0.184719
0.184707
0.184695
0.184682
0.18467
0.184657
0.184641
0.184621
0.184599
0.184574
0.184543
0.184504
0.184456
0.184396
0.184329
0.184248
0.184148
0.184058
0.18397
0.183861
0.183769
0.183681
0.183609
0.183553
0.183502
0.183469
0.183423
0.183254
0.175706
0.154114
0.149361
0.153929
0.15705
0.159219
0.161447
0.163759
0.165104
0.166531
0.167649
0.168735
0.16971
0.171106
0.172169
0.173532
0.174968
0.176297
0.177211
0.178118
0.179417
0.180486
0.181586
0.183103
0.184625
0.186273
0.187384
0.18914
0.190418
0.1924
0.194098
0.195595
0.197786
0.199614
0.20151
0.203381
0.205211
0.206959
0.209684
0.212808
0.215181
0.21882
0.222171
0.22551
0.228789
0.232551
0.23522
0.233204
0.23178
0.230646
0.22974
0.229026
0.228379
0.227808
0.227285
0.226784
0.226298
0.225797
0.225274
0.224757
0.224221
0.223709
0.223176
0.222633
0.222093
0.221551
0.221018
0.220485
0.219953
0.219421
0.218894
0.218367
0.217853
0.217344
0.216831
0.21633
0.215822
0.21533
0.214831
0.214322
0.213837
0.213322
0.212811
0.212296
0.211754
0.211182
0.21059
0.20997
0.209344
0.208703
0.208057
0.20738
0.206681
0.205994
0.205282
0.204524
0.203751
0.202948
0.202093
0.20114
0.19822
0.178466
0.16368
0.165575
0.169825
0.173066
0.175234
0.177535
0.179298
0.18079
0.181881
0.18262
0.183657
0.184342
0.185444
0.186406
0.187554
0.188161
0.1892
0.190191
0.191083
0.191978
0.192546
0.193337
0.194201
0.195226
0.195869
0.196853
0.198008
0.199412
0.200423
0.201839
0.203073
0.204344
0.205793
0.206676
0.208626
0.209662
0.21154
0.213157
0.215592
0.218346
0.22126
0.224826
0.227663
0.232213
0.438584
0.433098
0.429079
0.425954
0.423289
0.420956
0.418888
0.416924
0.415007
0.413229
0.411409
0.409652
0.407896
0.406093
0.40433
0.402517
0.400793
0.399071
0.397339
0.395544
0.393822
0.392083
0.390223
0.3884
0.38655
0.384754
0.38293
0.381076
0.379226
0.377389
0.375487
0.373635
0.371761
0.36992
0.367996
0.366202
0.364399
0.362544
0.360608
0.358701
0.356785
0.354804
0.352721
0.350594
0.348375
0.346076
0.343711
0.341244
0.338711
0.33609
0.333313
0.330442
0.327336
0.323885
0.319377
0.305568
0.271251
0.266358
0.272514
0.27768
0.280171
0.283337
0.28395
0.284849
0.284757
0.284996
0.285035
0.284568
0.2843
0.28385
0.283544
0.282787
0.282198
0.28132
0.280636
0.279744
0.279013
0.27867
0.277711
0.276716
0.275786
0.275173
0.273872
0.273311
0.272308
0.271059
0.269715
0.26852
0.266833
0.265626
0.264447
0.262396
0.259864
0.257893
0.256161
0.253382
0.251275
0.249295
0.245232
0.241213
2.79241e-16
1.0079e-13
7.4805e-12
3.19877e-11
8.08317e-11
2.98974e-10
1.62952e-09
1.08386e-09
3.62561e-09
6.15301e-09
7.45187e-09
9.9943e-09
1.21952e-08
1.24821e-07
3.03135e-06
2.46768e-05
6.26295e-05
6.90745e-05
0.000124495
0.00014579
0.000184049
0.000282741
0.000359288
0.000362131
0.000489216
0.000586736
0.000596759
0.000591974
0.000697329
0.00108238
0.00112958
0.00139252
0.00916417
0.0264581
0.0377298
0.0416217
0.043808
0.0449875
0.0459028
0.0468403
0.0477783
0.0487246
0.0497272
0.0507568
0.0518549
0.0529919
0.0541901
0.055437
0.0567505
0.0581346
0.057995
0.0492346
0.0437695
0.0449025
0.0475663
0.0497207
0.0518626
0.0534811
0.0552139
0.0567927
0.0583402
0.0599027
0.0615343
0.0633243
0.065049
0.066805
0.0687202
0.0705997
0.0726111
0.0746337
0.076734
0.0788934
0.0812404
0.0835568
0.0860499
0.0886508
0.0913657
0.0941692
0.0970992
0.100089
0.10341
0.106818
0.1104
0.114172
0.117992
0.12206
0.126582
0.131066
0.13627
0.141681
0.147551
0.153238
0.159665
0.166887
0.174246
0.182065
0.190991
0.201003
0.212493
0.223914
4.29944e-07
6.86723e-06
3.96151e-05
7.13422e-05
9.10404e-05
0.000144185
0.00028959
0.000249203
0.000366567
0.000463719
0.000594479
0.000625972
0.000837802
0.00650037
0.0261104
0.0432161
0.0529311
0.0553376
0.0572552
0.0587901
0.0602954
0.061788
0.0633226
0.0648743
0.066466
0.0680924
0.0697592
0.0714642
0.073185
0.0749361
0.076673
0.0783886
0.0798821
0.0811915
0.0824958
0.0837193
0.0848569
0.0860038
0.0870894
0.0881831
0.0893
0.0903358
0.091406
0.092425
0.0934154
0.0944506
0.0953843
0.096299
0.0970713
0.0975054
0.0969561
0.0914705
0.0783405
0.0780289
0.082614
0.0874316
0.0915501
0.0946574
0.0973347
0.100101
0.102627
0.104892
0.10701
0.109195
0.111422
0.113721
0.11587
0.118305
0.12056
0.122877
0.125231
0.127741
0.130372
0.133168
0.135891
0.138566
0.141216
0.143913
0.146909
0.149812
0.153191
0.156217
0.159414
0.163064
0.166287
0.169595
0.173603
0.177343
0.181191
0.184952
0.18935
0.193939
0.198903
0.203295
0.207468
0.212113
0.217294
0.222208
0.227048
0.231676
0.0109247
0.0394456
0.0609124
0.0668416
0.0703466
0.0732261
0.075312
0.0773838
0.0794819
0.081632
0.0837705
0.0860224
0.0882848
0.090303
0.092121
0.0939162
0.0955865
0.0970287
0.0984277
0.0998018
0.101164
0.102538
0.103903
0.105261
0.106614
0.107947
0.109274
0.110613
0.111919
0.113208
0.11444
0.115555
0.116575
0.117514
0.118468
0.119445
0.120509
0.121571
0.122609
0.123612
0.124657
0.125715
0.126687
0.127701
0.128581
0.129421
0.130229
0.130891
0.131281
0.131286
0.130767
0.12876
0.11673
0.106428
0.109971
0.116319
0.121278
0.124456
0.127098
0.129475
0.131934
0.13397
0.135855
0.137855
0.13977
0.141904
0.144057
0.145985
0.147946
0.149864
0.151994
0.154268
0.156336
0.158268
0.16062
0.162818
0.16515
0.16747
0.169427
0.171697
0.174148
0.176743
0.179409
0.181708
0.184464
0.187066
0.189591
0.192399
0.195487
0.198389
0.201764
0.204235
0.206945
0.209919
0.212843
0.215735
0.218897
0.223175
0.226403
0.230946
0.109823
0.109889
0.11077
0.112065
0.113395
0.114711
0.116051
0.117429
0.118827
0.120212
0.121564
0.122874
0.12411
0.125224
0.126234
0.127241
0.128296
0.129331
0.130393
0.131454
0.132519
0.133529
0.134573
0.135581
0.136561
0.13757
0.138549
0.139537
0.140516
0.141431
0.142311
0.143176
0.144008
0.144768
0.145572
0.146376
0.147186
0.147983
0.1488
0.149617
0.15037
0.15112
0.15188
0.152578
0.153234
0.153889
0.154435
0.154919
0.155233
0.155327
0.155066
0.154625
0.150208
0.132605
0.127094
0.133192
0.137566
0.141633
0.144058
0.146427
0.148461
0.1503
0.152279
0.153815
0.155364
0.157064
0.158557
0.160406
0.161968
0.163754
0.165509
0.166938
0.168406
0.169989
0.171414
0.173316
0.174927
0.176933
0.178499
0.180164
0.181924
0.183478
0.185404
0.187435
0.18945
0.191413
0.193786
0.196073
0.198652
0.201237
0.203734
0.205716
0.207635
0.210817
0.213976
0.216775
0.220522
0.223365
0.227003
0.230934
0.140455
0.140391
0.140629
0.141131
0.141798
0.142563
0.143387
0.144247
0.145117
0.145973
0.146825
0.147632
0.148424
0.149188
0.149917
0.150618
0.151349
0.152063
0.152743
0.153431
0.154141
0.154848
0.155557
0.15625
0.156911
0.157594
0.158249
0.158883
0.159509
0.16013
0.160737
0.16129
0.161853
0.162379
0.162898
0.163393
0.163922
0.16444
0.164938
0.165439
0.165888
0.166341
0.166751
0.167138
0.167529
0.167899
0.168227
0.168503
0.16869
0.168791
0.168777
0.168583
0.167102
0.150034
0.13778
0.140583
0.145794
0.148932
0.151355
0.154057
0.155693
0.157493
0.158931
0.160547
0.161963
0.163216
0.164676
0.166242
0.167906
0.169041
0.170397
0.171989
0.173487
0.175076
0.17657
0.177909
0.179513
0.180749
0.182529
0.183797
0.18515
0.186896
0.188798
0.190858
0.192403
0.193885
0.195673
0.197208
0.199472
0.20119
0.202922
0.205389
0.208297
0.211355
0.214058
0.217258
0.220252
0.224257
0.228736
0.233098
0.159243
0.159184
0.159298
0.15956
0.159936
0.160392
0.160894
0.161417
0.161961
0.162496
0.163018
0.163526
0.164038
0.164511
0.164985
0.165426
0.165861
0.166321
0.166783
0.167221
0.16764
0.168042
0.168449
0.168856
0.16926
0.169648
0.170042
0.170404
0.170764
0.171119
0.171465
0.171796
0.172107
0.172406
0.172698
0.172966
0.17322
0.17347
0.17372
0.173954
0.17418
0.17438
0.174562
0.174764
0.174936
0.175094
0.175256
0.175375
0.175476
0.175524
0.17551
0.175435
0.175276
0.171094
0.151106
0.142833
0.145772
0.149767
0.152949
0.155213
0.156995
0.158686
0.160549
0.162098
0.163617
0.165198
0.166666
0.16823
0.169773
0.170938
0.172113
0.173667
0.174861
0.176253
0.17727
0.178545
0.179778
0.18088
0.182427
0.18364
0.18533
0.186477
0.188335
0.190264
0.192184
0.193935
0.195586
0.197585
0.199707
0.202036
0.204191
0.206366
0.208771
0.211156
0.21408
0.217582
0.221656
0.225323
0.229492
0.233323
0.171268
0.171173
0.171192
0.171314
0.171503
0.171744
0.172019
0.172309
0.172607
0.172908
0.173199
0.173482
0.173767
0.174028
0.174288
0.174528
0.174779
0.175022
0.175246
0.175468
0.175686
0.175904
0.176116
0.176316
0.176527
0.176717
0.176895
0.177069
0.177249
0.177415
0.177586
0.177747
0.177897
0.178045
0.178186
0.178313
0.178439
0.178555
0.17866
0.178758
0.178839
0.178909
0.178974
0.179027
0.179067
0.179096
0.179141
0.179166
0.179196
0.179209
0.179211
0.179201
0.179168
0.178883
0.170048
0.150521
0.145147
0.149227
0.152189
0.155061
0.157672
0.160051
0.161895
0.163542
0.164588
0.166112
0.167187
0.168669
0.169815
0.171065
0.172385
0.173662
0.174942
0.176053
0.177235
0.178183
0.179673
0.18066
0.182157
0.183696
0.184923
0.18647
0.187773
0.188922
0.190741
0.19263
0.194706
0.196907
0.199029
0.201371
0.203852
0.205661
0.20779
0.210707
0.213745
0.21707
0.220351
0.223709
0.227441
0.231762
0.185328
0.184889
0.184618
0.184463
0.184388
0.184368
0.184387
0.184418
0.184464
0.184517
0.184564
0.184608
0.184644
0.184674
0.184699
0.184715
0.184731
0.184742
0.184746
0.184753
0.184756
0.184758
0.184753
0.184749
0.184739
0.184732
0.184719
0.184707
0.184695
0.184682
0.18467
0.184657
0.184641
0.184621
0.184599
0.184574
0.184543
0.184504
0.184456
0.184396
0.184329
0.184248
0.184148
0.184058
0.18397
0.183861
0.183769
0.183681
0.183609
0.183553
0.183502
0.183469
0.183423
0.183254
0.175706
0.154114
0.149361
0.153929
0.15705
0.159219
0.161447
0.163759
0.165104
0.166531
0.167649
0.168735
0.16971
0.171106
0.172169
0.173532
0.174968
0.176297
0.177211
0.178118
0.179417
0.180486
0.181586
0.183103
0.184625
0.186273
0.187384
0.18914
0.190418
0.1924
0.194098
0.195595
0.197786
0.199614
0.20151
0.203381
0.205211
0.206959
0.209684
0.212808
0.215181
0.21882
0.222171
0.22551
0.228789
0.232551
0.23522
0.233204
0.23178
0.230646
0.22974
0.229026
0.228379
0.227808
0.227285
0.226784
0.226298
0.225797
0.225274
0.224757
0.224221
0.223709
0.223176
0.222633
0.222093
0.221551
0.221018
0.220485
0.219953
0.219421
0.218894
0.218367
0.217853
0.217344
0.216831
0.21633
0.215822
0.21533
0.214831
0.214322
0.213837
0.213322
0.212811
0.212296
0.211754
0.211182
0.21059
0.20997
0.209344
0.208703
0.208057
0.20738
0.206681
0.205994
0.205282
0.204524
0.203751
0.202948
0.202093
0.20114
0.19822
0.178466
0.16368
0.165575
0.169825
0.173066
0.175234
0.177535
0.179298
0.18079
0.181881
0.18262
0.183657
0.184342
0.185444
0.186406
0.187554
0.188161
0.1892
0.190191
0.191083
0.191978
0.192546
0.193337
0.194201
0.195226
0.195869
0.196853
0.198008
0.199412
0.200423
0.201839
0.203073
0.204344
0.205793
0.206676
0.208626
0.209662
0.21154
0.213157
0.215592
0.218346
0.22126
0.224826
0.227663
0.232213
0.438584
0.433098
0.429079
0.425954
0.423289
0.420956
0.418888
0.416924
0.415007
0.413229
0.411409
0.409652
0.407896
0.406093
0.40433
0.402517
0.400793
0.399071
0.397339
0.395544
0.393822
0.392083
0.390223
0.3884
0.38655
0.384754
0.38293
0.381076
0.379226
0.377389
0.375487
0.373635
0.371761
0.36992
0.367996
0.366202
0.364399
0.362544
0.360608
0.358701
0.356785
0.354804
0.352721
0.350594
0.348375
0.346076
0.343711
0.341244
0.338711
0.33609
0.333313
0.330442
0.327336
0.323885
0.319377
0.305568
0.271251
0.266358
0.272514
0.27768
0.280171
0.283337
0.28395
0.284849
0.284757
0.284996
0.285035
0.284568
0.2843
0.28385
0.283544
0.282787
0.282198
0.28132
0.280636
0.279744
0.279013
0.27867
0.277711
0.276716
0.275786
0.275173
0.273872
0.273311
0.272308
0.271059
0.269715
0.26852
0.266833
0.265626
0.264447
0.262396
0.259864
0.257893
0.256161
0.253382
0.251275
0.249295
0.245232
0.241213
2.79241e-16
1.0079e-13
7.4805e-12
3.19877e-11
8.08317e-11
2.98974e-10
1.62952e-09
1.08386e-09
3.62561e-09
6.15301e-09
7.45187e-09
9.9943e-09
1.21952e-08
1.24821e-07
3.03135e-06
2.46768e-05
6.26295e-05
6.90745e-05
0.000124495
0.00014579
0.000184049
0.000282741
0.000359288
0.000362131
0.000489216
0.000586736
0.000596759
0.000591974
0.000697329
0.00108238
0.00112958
0.00139252
0.00916417
0.0264581
0.0377298
0.0416217
0.043808
0.0449875
0.0459028
0.0468403
0.0477783
0.0487246
0.0497272
0.0507568
0.0518549
0.0529919
0.0541901
0.055437
0.0567505
0.0581346
0.057995
0.0492346
0.0437695
0.0449025
0.0475663
0.0497207
0.0518626
0.0534811
0.0552139
0.0567927
0.0583402
0.0599027
0.0615343
0.0633243
0.065049
0.066805
0.0687202
0.0705997
0.0726111
0.0746337
0.076734
0.0788934
0.0812404
0.0835568
0.0860499
0.0886508
0.0913657
0.0941692
0.0970992
0.100089
0.10341
0.106818
0.1104
0.114172
0.117992
0.12206
0.126582
0.131066
0.13627
0.141681
0.147551
0.153238
0.159665
0.166887
0.174246
0.182065
0.190991
0.201003
0.212493
0.223914
0.438584
0.433098
0.429079
0.425954
0.423289
0.420956
0.418888
0.416924
0.415007
0.413229
0.411409
0.409652
0.407896
0.406093
0.40433
0.402517
0.400793
0.399071
0.397339
0.395544
0.393822
0.392083
0.390223
0.3884
0.38655
0.384754
0.38293
0.381076
0.379226
0.377389
0.375487
0.373635
0.371761
0.36992
0.367996
0.366202