/*--------------------------------*- C++ -*----------------------------------*\
| =========                 |                                                 |
| \\      /  F ield         | foam-extend: Open Source CFD                    |
|  \\    /   O peration     | Version:     5.0                                |
|   \\  /    A nd           | Web:         http://www.foam-extend.org         |
|    \\/     M anipulation  |                                                 |
\*---------------------------------------------------------------------------*/
FoamFile
{
    version     2.0;
    format      ascii;
    class       volScalarField;
    location    "10000";
    object      S.oil;
}
// * * * * * * * * * * * * * * * * * * * * * * * * * * * * * * * * * * * * * //

dimensions      [0 0 0 0 0 0 0];

internalField   nonuniform List<scalar> 
1000
(
1
1
1
1
1
1
1
1
1
1
1
1
1
1
0.999997
0.999975
0.999937
0.999931
0.999876
0.999854
0.999816
0.999717
0.999641
0.999638
0.999511
0.999413
0.999403
0.999408
0.999303
0.998918
0.99887
0.998607
0.990836
0.973542
0.96227
0.958378
0.956192
0.955012
0.954097
0.95316
0.952222
0.951275
0.950273
0.949243
0.948145
0.947008
0.94581
0.944563
0.94325
0.941609
0.914516
0.746601
0.582665
0.49358
0.450549
0.428084
0.408259
0.397755
0.386077
0.377499
0.370324
0.363796
0.356939
0.348238
0.341547
0.335349
0.327689
0.321611
0.31469
0.308658
0.302593
0.296794
0.289711
0.284164
0.277706
0.271196
0.264573
0.258125
0.251508
0.245503
0.23758
0.230269
0.222721
0.214936
0.208255
0.200995
0.191754
0.184503
0.173846
0.16357
0.152112
0.143845
0.133214
0.120383
0.109189
0.0979157
0.0836885
0.0673397
0.0475567
0.0320372
1
0.999993
0.99996
0.999929
0.999909
0.999856
0.99971
0.999751
0.999633
0.999536
0.999406
0.999374
0.999162
0.9935
0.97389
0.956784
0.947069
0.944662
0.942745
0.94121
0.939705
0.938212
0.936677
0.935126
0.933534
0.931908
0.930241
0.928536
0.926815
0.925064
0.923327
0.921611
0.920118
0.918809
0.917504
0.916281
0.915143
0.913996
0.912911
0.911817
0.9107
0.909664
0.908594
0.907575
0.906585
0.905549
0.904616
0.903701
0.902929
0.902495
0.902392
0.864181
0.684806
0.579895
0.494266
0.452572
0.425184
0.409338
0.397978
0.384895
0.373671
0.365217
0.358684
0.352028
0.344985
0.337392
0.331904
0.32406
0.31842
0.312566
0.306724
0.299981
0.292906
0.284765
0.277584
0.271308
0.265668
0.260113
0.252901
0.24648
0.237395
0.230918
0.223713
0.214093
0.207155
0.200184
0.189683
0.180798
0.171984
0.16408
0.153123
0.141216
0.127512
0.11666
0.106675
0.0942137
0.0789667
0.0643296
0.0494239
0.0337801
0.989075
0.960554
0.939088
0.933158
0.929653
0.926774
0.924688
0.922616
0.920518
0.918368
0.916229
0.913978
0.911715
0.909697
0.907879
0.906084
0.904413
0.902971
0.901572
0.900198
0.898836
0.897462
0.896097
0.894739
0.893386
0.892053
0.890726
0.889387
0.888081
0.886792
0.88556
0.884445
0.883425
0.882486
0.881532
0.880555
0.879491
0.878429
0.877391
0.876388
0.875343
0.874285
0.873313
0.872299
0.871419
0.870579
0.869771
0.869109
0.868719
0.868714
0.869215
0.863285
0.772936
0.60994
0.506353
0.449585
0.419887
0.405979
0.395993
0.387457
0.37772
0.37077
0.36474
0.357957
0.351824
0.34411
0.336295
0.330233
0.324098
0.318357
0.311413
0.30382
0.297769
0.292729
0.28518
0.278451
0.271003
0.263653
0.258622
0.251913
0.244328
0.235872
0.226951
0.219982
0.210617
0.201989
0.193789
0.184193
0.173193
0.163017
0.15067
0.142349
0.132781
0.121642
0.110623
0.0997101
0.0874806
0.0704774
0.0574751
0.0388277
0.890177
0.890111
0.88923
0.887935
0.886605
0.885289
0.883949
0.882571
0.881173
0.879788
0.878436
0.877126
0.87589
0.874776
0.873766
0.872759
0.871704
0.870669
0.869607
0.868546
0.867481
0.866471
0.865427
0.864419
0.863439
0.86243
0.861451
0.860463
0.859484
0.858569
0.857689
0.856824
0.855992
0.855232
0.854428
0.853624
0.852814
0.852017
0.8512
0.850383
0.84963
0.84888
0.84812
0.847422
0.846766
0.846111
0.845565
0.845081
0.844767
0.844673
0.844934
0.845176
0.824156
0.690149
0.538601
0.46135
0.433315
0.409787
0.398548
0.387191
0.378073
0.369886
0.360635
0.354279
0.347927
0.340731
0.334812
0.326738
0.320446
0.312977
0.305702
0.300345
0.294863
0.288792
0.283697
0.276075
0.269956
0.261813
0.255827
0.249464
0.242598
0.236706
0.229039
0.220909
0.212974
0.205262
0.195573
0.18623
0.175422
0.164571
0.15395
0.145402
0.137184
0.123575
0.11009
0.0980992
0.0821561
0.0699316
0.054629
0.0384282
0.859545
0.859609
0.859371
0.858869
0.858202
0.857437
0.856613
0.855753
0.854883
0.854027
0.853175
0.852368
0.851576
0.850812
0.850083
0.849382
0.848651
0.847937
0.847257
0.846569
0.845859
0.845152
0.844443
0.84375
0.843089
0.842406
0.841751
0.841117
0.840491
0.83987
0.839263
0.83871
0.838147
0.837621
0.837102
0.836607
0.836078
0.83556
0.835062
0.834561
0.834112
0.833659
0.833249
0.832862
0.832471
0.832101
0.831773
0.831497
0.83131
0.831209
0.831223
0.8314
0.825358
0.726197
0.579841
0.493016
0.443609
0.422164
0.407276
0.390903
0.381933
0.371907
0.364267
0.355683
0.348419
0.342268
0.335041
0.327325
0.319175
0.314106
0.307895
0.30042
0.293555
0.286231
0.279456
0.273447
0.266107
0.260603
0.25234
0.246621
0.240479
0.232509
0.223684
0.214115
0.206968
0.200203
0.192086
0.185108
0.174907
0.167187
0.159577
0.148816
0.136115
0.122726
0.11079
0.096787
0.0838272
0.066922
0.0480946
0.0298667
0.840757
0.840816
0.840702
0.84044
0.840064
0.839608
0.839106
0.838583
0.838039
0.837504
0.836982
0.836474
0.835962
0.835489
0.835015
0.834574
0.834139
0.833679
0.833217
0.832779
0.83236
0.831958
0.831551
0.831144
0.83074
0.830352
0.829958
0.829596
0.829236
0.828881
0.828535
0.828204
0.827893
0.827594
0.827302
0.827034
0.82678
0.82653
0.82628
0.826046
0.82582
0.82562
0.825438
0.825236
0.825064
0.824906
0.824744
0.824625
0.824524
0.824476
0.82449
0.824565
0.82453
0.80495
0.681763
0.538128
0.484493
0.444027
0.419352
0.403548
0.391885
0.381415
0.370343
0.361515
0.353105
0.344382
0.336482
0.328093
0.319945
0.313882
0.307857
0.29992
0.293906
0.286946
0.281911
0.275639
0.269553
0.264235
0.256728
0.250923
0.242929
0.237542
0.22889
0.219865
0.210777
0.202504
0.194768
0.18557
0.175922
0.1654
0.155742
0.146147
0.135505
0.124945
0.112236
0.0971621
0.079732
0.0639638
0.0460322
0.0294183
0.828732
0.828827
0.828808
0.828686
0.828497
0.828256
0.827981
0.827691
0.827393
0.827092
0.826801
0.826518
0.826233
0.825972
0.825712
0.825472
0.825221
0.824978
0.824754
0.824532
0.824314
0.824096
0.823884
0.823684
0.823473
0.823283
0.823105
0.822931
0.822751
0.822585
0.822414
0.822253
0.822103
0.821955
0.821814
0.821687
0.821561
0.821445
0.82134
0.821242
0.821161
0.821091
0.821026
0.820973
0.820933
0.820904
0.820859
0.820834
0.820804
0.820791
0.820789
0.820799
0.820832
0.819979
0.777126
0.647739
0.521009
0.459938
0.434521
0.413263
0.395491
0.380216
0.368941
0.359073
0.352914
0.344114
0.337907
0.329486
0.323019
0.316045
0.308805
0.30192
0.295121
0.289182
0.282882
0.277853
0.270151
0.264929
0.25733
0.249601
0.243484
0.235837
0.229473
0.223885
0.215393
0.206662
0.19709
0.187096
0.177501
0.16697
0.155809
0.147582
0.13796
0.125087
0.111878
0.0973832
0.0833029
0.0690755
0.0534373
0.0353868
0.814672
0.815111
0.815382
0.815537
0.815612
0.815632
0.815613
0.815582
0.815536
0.815483
0.815436
0.815392
0.815356
0.815326
0.815301
0.815285
0.815269
0.815258
0.815254
0.815247
0.815244
0.815242
0.815247
0.815251
0.815261
0.815268
0.815281
0.815293
0.815305
0.815318
0.81533
0.815343
0.815359
0.815379
0.815401
0.815426
0.815457
0.815496
0.815544
0.815604
0.815671
0.815752
0.815852
0.815942
0.81603
0.816139
0.816231
0.816319
0.816391
0.816447
0.816498
0.816531
0.816577
0.816005
0.780653
0.64272
0.510596
0.450275
0.424136
0.408081
0.392752
0.377542
0.368747
0.359733
0.352712
0.346021
0.340003
0.331799
0.32541
0.317527
0.309332
0.301786
0.296363
0.291099
0.28398
0.278088
0.272163
0.264211
0.256268
0.247749
0.241856
0.232931
0.22628
0.216445
0.208027
0.200565
0.190073
0.181236
0.172158
0.163289
0.154577
0.146465
0.134081
0.120002
0.109054
0.0928371
0.0778685
0.0630419
0.0487294
0.0323982
0.76478
0.766796
0.76822
0.769354
0.77026
0.770974
0.771621
0.772192
0.772715
0.773216
0.773702
0.774203
0.774726
0.775243
0.775779
0.776291
0.776824
0.777367
0.777907
0.778449
0.778982
0.779515
0.780047
0.780579
0.781106
0.781633
0.782147
0.782656
0.783169
0.78367
0.784178
0.78467
0.785169
0.785678
0.786163
0.786678
0.787189
0.787704
0.788246
0.788818
0.78941
0.79003
0.790656
0.791297
0.791943
0.79262
0.793319
0.794006
0.794718
0.795476
0.796249
0.797052
0.797907
0.798833
0.792438
0.703411
0.570097
0.482931
0.442141
0.417825
0.402592
0.387044
0.375122
0.364836
0.35682
0.350683
0.343079
0.337407
0.329597
0.322505
0.314501
0.309107
0.301539
0.294125
0.287129
0.280049
0.274443
0.267834
0.260953
0.253294
0.247276
0.239752
0.231452
0.221974
0.214257
0.204761
0.19604
0.187108
0.177408
0.170124
0.158345
0.150637
0.139462
0.129386
0.115975
0.101445
0.086306
0.0687875
0.0549483
0.0344791
0.561416
0.566902
0.570921
0.574046
0.576711
0.579044
0.581112
0.583076
0.584993
0.586771
0.588591
0.590348
0.592104
0.593907
0.59567
0.597483
0.599207
0.600929
0.602661
0.604456
0.606178
0.607917
0.609777
0.6116
0.61345
0.615246
0.61707
0.618924
0.620774
0.622611
0.624513
0.626365
0.628239
0.63008
0.632004
0.633798
0.635601
0.637456
0.639392
0.641299
0.643215
0.645196
0.647279
0.649406
0.651625
0.653924
0.656289
0.658756
0.661289
0.66391
0.666687
0.669558
0.672664
0.676115
0.68036
0.667212
0.554985
0.469678
0.410982
0.381935
0.366817
0.348971
0.341342
0.332379
0.326665
0.319385
0.312823
0.307943
0.302422
0.297389
0.29175
0.287254
0.282067
0.277627
0.272231
0.267183
0.261103
0.253455
0.247738
0.241929
0.235321
0.227335
0.221387
0.212552
0.204634
0.197224
0.189622
0.180838
0.173066
0.162586
0.151286
0.14207
0.133927
0.122554
0.108931
0.0976541
0.0818796
0.0631866
0.0497781
0.033284
)
;

boundaryField
{
    inlet
    {
        type            calculated;
        value           uniform 0;
    }
    outlet
    {
        type            calculated;
        value           nonuniform List<scalar> 10(1 1 0.989075 0.890177 0.859545 0.840757 0.828732 0.814672 0.76478 0.561416);
    }
    walls
    {
        type            calculated;
        value           nonuniform List<scalar> 
2200
(
1
1
1
1
1
1
1
1
1
1
1
1
1
1
0.999997
0.999975
0.999937
0.999931
0.999876
0.999854
0.999816
0.999717
0.999641
0.999638
0.999511
0.999413
0.999403
0.999408
0.999303
0.998918
0.99887
0.998607
0.990836
0.973542
0.96227
0.958378
0.956192
0.955012
0.954097
0.95316
0.952222
0.951275
0.950273
0.949243
0.948145
0.947008
0.94581
0.944563
0.94325
0.941609
0.914516
0.746601
0.582665
0.49358
0.450549
0.428084
0.408259
0.397755
0.386077
0.377499
0.370324
0.363796
0.356939
0.348238
0.341547
0.335349
0.327689
0.321611
0.31469
0.308658
0.302593
0.296794
0.289711
0.284164
0.277706
0.271196
0.264573
0.258125
0.251508
0.245503
0.23758
0.230269
0.222721
0.214936
0.208255
0.200995
0.191754
0.184503
0.173846
0.16357
0.152112
0.143845
0.133214
0.120383
0.109189
0.0979157
0.0836885
0.0673397
0.0475567
0.0320372
1
0.999993
0.99996
0.999929
0.999909
0.999856
0.99971
0.999751
0.999633
0.999536
0.999406
0.999374
0.999162
0.9935
0.97389
0.956784
0.947069
0.944662
0.942745
0.94121
0.939705
0.938212
0.936677
0.935126
0.933534
0.931908
0.930241
0.928536
0.926815
0.925064
0.923327
0.921611
0.920118
0.918809
0.917504
0.916281
0.915143
0.913996
0.912911
0.911817
0.9107
0.909664
0.908594
0.907575
0.906585
0.905549
0.904616
0.903701
0.902929
0.902495
0.902392
0.864181
0.684806
0.579895
0.494266
0.452572
0.425184
0.409338
0.397978
0.384895
0.373671
0.365217
0.358684
0.352028
0.344985
0.337392
0.331904
0.32406
0.31842
0.312566
0.306724
0.299981
0.292906
0.284765
0.277584
0.271308
0.265668
0.260113
0.252901
0.24648
0.237395
0.230918
0.223713
0.214093
0.207155
0.200184
0.189683
0.180798
0.171984
0.16408
0.153123
0.141216
0.127512
0.11666
0.106675
0.0942137
0.0789667
0.0643296
0.0494239
0.0337801
0.989075
0.960554
0.939088
0.933158
0.929653
0.926774
0.924688
0.922616
0.920518
0.918368
0.916229
0.913978
0.911715
0.909697
0.907879
0.906084
0.904413
0.902971
0.901572
0.900198
0.898836
0.897462
0.896097
0.894739
0.893386
0.892053
0.890726
0.889387
0.888081
0.886792
0.88556
0.884445
0.883425
0.882486
0.881532
0.880555
0.879491
0.878429
0.877391
0.876388
0.875343
0.874285
0.873313
0.872299
0.871419
0.870579
0.869771
0.869109
0.868719
0.868714
0.869215
0.863285
0.772936
0.60994
0.506353
0.449585
0.419887
0.405979
0.395993
0.387457
0.37772
0.37077
0.36474
0.357957
0.351824
0.34411
0.336295
0.330233
0.324098
0.318357
0.311413
0.30382
0.297769
0.292729
0.28518
0.278451
0.271003
0.263653
0.258622
0.251913
0.244328
0.235872
0.226951
0.219982
0.210617
0.201989
0.193789
0.184193
0.173193
0.163017
0.15067
0.142349
0.132781
0.121642
0.110623
0.0997101
0.0874806
0.0704774
0.0574751
0.0388277
0.890177
0.890111
0.88923
0.887935
0.886605
0.885289
0.883949
0.882571
0.881173
0.879788
0.878436
0.877126
0.87589
0.874776
0.873766
0.872759
0.871704
0.870669
0.869607
0.868546
0.867481
0.866471
0.865427
0.864419
0.863439
0.86243
0.861451
0.860463
0.859484
0.858569
0.857689
0.856824
0.855992
0.855232
0.854428
0.853624
0.852814
0.852017
0.8512
0.850383
0.84963
0.84888
0.84812
0.847422
0.846766
0.846111
0.845565
0.845081
0.844767
0.844673
0.844934
0.845176
0.824156
0.690149
0.538601
0.46135
0.433315
0.409787
0.398548
0.387191
0.378073
0.369886
0.360635
0.354279
0.347927
0.340731
0.334812
0.326738
0.320446
0.312977
0.305702
0.300345
0.294863
0.288792
0.283697
0.276075
0.269956
0.261813
0.255827
0.249464
0.242598
0.236706
0.229039
0.220909
0.212974
0.205262
0.195573
0.18623
0.175422
0.164571
0.15395
0.145402
0.137184
0.123575
0.11009
0.0980992
0.0821561
0.0699316
0.054629
0.0384282
0.859545
0.859609
0.859371
0.858869
0.858202
0.857437
0.856613
0.855753
0.854883
0.854027
0.853175
0.852368
0.851576
0.850812
0.850083
0.849382
0.848651
0.847937
0.847257
0.846569
0.845859
0.845152
0.844443
0.84375
0.843089
0.842406
0.841751
0.841117
0.840491
0.83987
0.839263
0.83871
0.838147
0.837621
0.837102
0.836607
0.836078
0.83556
0.835062
0.834561
0.834112
0.833659
0.833249
0.832862
0.832471
0.832101
0.831773
0.831497
0.83131
0.831209
0.831223
0.8314
0.825358
0.726197
0.579841
0.493016
0.443609
0.422164
0.407276
0.390903
0.381933
0.371907
0.364267
0.355683
0.348419
0.342268
0.335041
0.327325
0.319175
0.314106
0.307895
0.30042
0.293555
0.286231
0.279456
0.273447
0.266107
0.260603
0.25234
0.246621
0.240479
0.232509
0.223684
0.214115
0.206968
0.200203
0.192086
0.185108
0.174907
0.167187
0.159577
0.148816
0.136115
0.122726
0.11079
0.096787
0.0838272
0.066922
0.0480946
0.0298667
0.840757
0.840816
0.840702
0.84044
0.840064
0.839608
0.839106
0.838583
0.838039
0.837504
0.836982
0.836474
0.835962
0.835489
0.835015
0.834574
0.834139
0.833679
0.833217
0.832779
0.83236
0.831958
0.831551
0.831144
0.83074
0.830352
0.829958
0.829596
0.829236
0.828881
0.828535
0.828204
0.827893
0.827594
0.827302
0.827034
0.82678
0.82653
0.82628
0.826046
0.82582
0.82562
0.825438
0.825236
0.825064
0.824906
0.824744
0.824625
0.824524
0.824476
0.82449
0.824565
0.82453
0.80495
0.681763
0.538128
0.484493
0.444027
0.419352
0.403548
0.391885
0.381415
0.370343
0.361515
0.353105
0.344382
0.336482
0.328093
0.319945
0.313882
0.307857
0.29992
0.293906
0.286946
0.281911
0.275639
0.269553
0.264235
0.256728
0.250923
0.242929
0.237542
0.22889
0.219865
0.210777
0.202504
0.194768
0.18557
0.175922
0.1654
0.155742
0.146147
0.135505
0.124945
0.112236
0.0971621
0.079732
0.0639638
0.0460322
0.0294183
0.828732
0.828827
0.828808
0.828686
0.828497
0.828256
0.827981
0.827691
0.827393
0.827092
0.826801
0.826518
0.826233
0.825972
0.825712
0.825472
0.825221
0.824978
0.824754
0.824532
0.824314
0.824096
0.823884
0.823684
0.823473
0.823283
0.823105
0.822931
0.822751
0.822585
0.822414
0.822253
0.822103
0.821955
0.821814
0.821687
0.821561
0.821445
0.82134
0.821242
0.821161
0.821091
0.821026
0.820973
0.820933
0.820904
0.820859
0.820834
0.820804
0.820791
0.820789
0.820799
0.820832
0.819979
0.777126
0.647739
0.521009
0.459938
0.434521
0.413263
0.395491
0.380216
0.368941
0.359073
0.352914
0.344114
0.337907
0.329486
0.323019
0.316045
0.308805
0.30192
0.295121
0.289182
0.282882
0.277853
0.270151
0.264929
0.25733
0.249601
0.243484
0.235837
0.229473
0.223885
0.215393
0.206662
0.19709
0.187096
0.177501
0.16697
0.155809
0.147582
0.13796
0.125087
0.111878
0.0973832
0.0833029
0.0690755
0.0534373
0.0353868
0.814672
0.815111
0.815382
0.815537
0.815612
0.815632
0.815613
0.815582
0.815536
0.815483
0.815436
0.815392
0.815356
0.815326
0.815301
0.815285
0.815269
0.815258
0.815254
0.815247
0.815244
0.815242
0.815247
0.815251
0.815261
0.815268
0.815281
0.815293
0.815305
0.815318
0.81533
0.815343
0.815359
0.815379
0.815401
0.815426
0.815457
0.815496
0.815544
0.815604
0.815671
0.815752
0.815852
0.815942
0.81603
0.816139
0.816231
0.816319
0.816391
0.816447
0.816498
0.816531
0.816577
0.816005
0.780653
0.64272
0.510596
0.450275
0.424136
0.408081
0.392752
0.377542
0.368747
0.359733
0.352712
0.346021
0.340003
0.331799
0.32541
0.317527
0.309332
0.301786
0.296363
0.291099
0.28398
0.278088
0.272163
0.264211
0.256268
0.247749
0.241856
0.232931
0.22628
0.216445
0.208027
0.200565
0.190073
0.181236
0.172158
0.163289
0.154577
0.146465
0.134081
0.120002
0.109054
0.0928371
0.0778685
0.0630419
0.0487294
0.0323982
0.76478
0.766796
0.76822
0.769354
0.77026
0.770974
0.771621
0.772192
0.772715
0.773216
0.773702
0.774203
0.774726
0.775243
0.775779
0.776291
0.776824
0.777367
0.777907
0.778449
0.778982
0.779515
0.780047
0.780579
0.781106
0.781633
0.782147
0.782656
0.783169
0.78367
0.784178
0.78467
0.785169
0.785678
0.786163
0.786678
0.787189
0.787704
0.788246
0.788818
0.78941
0.79003
0.790656
0.791297
0.791943
0.79262
0.793319
0.794006
0.794718
0.795476
0.796249
0.797052
0.797907
0.798833
0.792438
0.703411
0.570097
0.482931
0.442141
0.417825
0.402592
0.387044
0.375122
0.364836
0.35682
0.350683
0.343079
0.337407
0.329597
0.322505
0.314501
0.309107
0.301539
0.294125
0.287129
0.280049
0.274443
0.267834
0.260953
0.253294
0.247276
0.239752
0.231452
0.221974
0.214257
0.204761
0.19604
0.187108
0.177408
0.170124
0.158345
0.150637
0.139462
0.129386
0.115975
0.101445
0.086306
0.0687875
0.0549483
0.0344791
0.561416
0.566902
0.570921
0.574046
0.576711
0.579044
0.581112
0.583076
0.584993
0.586771
0.588591
0.590348
0.592104
0.593907
0.59567
0.597483
0.599207
0.600929
0.602661
0.604456
0.606178
0.607917
0.609777
0.6116
0.61345
0.615246
0.61707
0.618924
0.620774
0.622611
0.624513
0.626365
0.628239
0.63008
0.632004
0.633798
0.635601
0.637456
0.639392
0.641299
0.643215
0.645196
0.647279
0.649406
0.651625
0.653924
0.656289
0.658756
0.661289
0.66391
0.666687
0.669558
0.672664
0.676115
0.68036
0.667212
0.554985
0.469678
0.410982
0.381935
0.366817
0.348971
0.341342
0.332379
0.326665
0.319385
0.312823
0.307943
0.302422
0.297389
0.29175
0.287254
0.282067
0.277627
0.272231
0.267183
0.261103
0.253455
0.247738
0.241929
0.235321
0.227335
0.221387
0.212552
0.204634
0.197224
0.189622
0.180838
0.173066
0.162586
0.151286
0.14207
0.133927
0.122554
0.108931
0.0976541
0.0818796
0.0631866
0.0497781
0.033284
1
1
1
1
1
1
1
1
1
1
1
1
1
1
0.999997
0.999975
0.999937
0.999931
0.999876
0.999854
0.999816
0.999717
0.999641
0.999638
0.999511
0.999413
0.999403
0.999408
0.999303
0.998918
0.99887
0.998607
0.990836
0.973542
0.96227
0.958378
0.956192
0.955012
0.954097
0.95316
0.952222
0.951275
0.950273
0.949243
0.948145
0.947008
0.94581
0.944563
0.94325
0.941609
0.914516
0.746601
0.582665
0.49358
0.450549
0.428084
0.408259
0.397755
0.386077
0.377499
0.370324
0.363796
0.356939
0.348238
0.341547
0.335349
0.327689
0.321611
0.31469
0.308658
0.302593
0.296794
0.289711
0.284164
0.277706
0.271196
0.264573
0.258125
0.251508
0.245503
0.23758
0.230269
0.222721
0.214936
0.208255
0.200995
0.191754
0.184503
0.173846
0.16357
0.152112
0.143845
0.133214
0.120383
0.109189
0.0979157
0.0836885
0.0673397
0.0475567
0.0320372
1
0.999993
0.99996
0.999929
0.999909
0.999856
0.99971
0.999751
0.999633
0.999536
0.999406
0.999374
0.999162
0.9935
0.97389
0.956784
0.947069
0.944662
0.942745
0.94121
0.939705
0.938212
0.936677
0.935126
0.933534
0.931908
0.930241
0.928536
0.926815
0.925064
0.923327
0.921611
0.920118
0.918809
0.917504
0.916281
0.915143
0.913996
0.912911
0.911817
0.9107
0.909664
0.908594
0.907575
0.906585
0.905549
0.904616
0.903701
0.902929
0.902495
0.902392
0.864181
0.684806
0.579895
0.494266
0.452572
0.425184
0.409338
0.397978
0.384895
0.373671
0.365217
0.358684
0.352028
0.344985
0.337392
0.331904
0.32406
0.31842
0.312566
0.306724
0.299981
0.292906
0.284765
0.277584
0.271308
0.265668
0.260113
0.252901
0.24648
0.237395
0.230918
0.223713
0.214093
0.207155
0.200184
0.189683
0.180798
0.171984
0.16408
0.153123
0.141216
0.127512
0.11666
0.106675
0.0942137
0.0789667
0.0643296
0.0494239
0.0337801
0.989075
0.960554
0.939088
0.933158
0.929653
0.926774
0.924688
0.922616
0.920518
0.918368
0.916229
0.913978
0.911715
0.909697
0.907879
0.906084
0.904413
0.902971
0.901572
0.900198
0.898836
0.897462
0.896097
0.894739
0.893386
0.892053
0.890726
0.889387
0.888081
0.886792
0.88556
0.884445
0.883425
0.882486
0.881532
0.880555
0.879491
0.878429
0.877391
0.876388
0.875343
0.874285
0.873313
0.872299
0.871419
0.870579
0.869771
0.869109
0.868719
0.868714
0.869215
0.863285
0.772936
0.60994
0.506353
0.449585
0.419887
0.405979
0.395993
0.387457
0.37772
0.37077
0.36474
0.357957
0.351824
0.34411
0.336295
0.330233
0.324098
0.318357
0.311413
0.30382
0.297769
0.292729
0.28518
0.278451
0.271003
0.263653
0.258622
0.251913
0.244328
0.235872
0.226951
0.219982
0.210617
0.201989
0.193789
0.184193
0.173193
0.163017
0.15067
0.142349
0.132781
0.121642
0.110623
0.0997101
0.0874806
0.0704774
0.0574751
0.0388277
0.890177
0.890111
0.88923
0.887935
0.886605
0.885289
0.883949
0.882571
0.881173
0.879788
0.878436
0.877126
0.87589
0.874776
0.873766
0.872759
0.871704
0.870669
0.869607
0.868546
0.867481
0.866471
0.865427
0.864419
0.863439
0.86243
0.861451
0.860463
0.859484
0.858569
0.857689
0.856824
0.855992
0.855232
0.854428
0.853624
0.852814
0.852017
0.8512
0.850383
0.84963
0.84888
0.84812
0.847422
0.846766
0.846111
0.845565
0.845081
0.844767
0.844673
0.844934
0.845176
0.824156
0.690149
0.538601
0.46135
0.433315
0.409787
0.398548
0.387191
0.378073
0.369886
0.360635
0.354279
0.347927
0.340731
0.334812
0.326738
0.320446
0.312977
0.305702
0.300345
0.294863
0.288792
0.283697
0.276075
0.269956
0.261813
0.255827
0.249464
0.242598
0.236706
0.229039
0.220909
0.212974
0.205262
0.195573
0.18623
0.175422
0.164571
0.15395
0.145402
0.137184
0.123575
0.11009
0.0980992
0.0821561
0.0699316
0.054629
0.0384282
0.859545
0.859609
0.859371
0.858869
0.858202
0.857437
0.856613
0.855753
0.854883
0.854027
0.853175
0.852368
0.851576
0.850812
0.850083
0.849382
0.848651
0.847937
0.847257
0.846569
0.845859
0.845152
0.844443
0.84375
0.843089
0.842406
0.841751
0.841117
0.840491
0.83987
0.839263
0.83871
0.838147
0.837621
0.837102
0.836607
0.836078
0.83556
0.835062
0.834561
0.834112
0.833659
0.833249
0.832862
0.832471
0.832101
0.831773
0.831497
0.83131
0.831209
0.831223
0.8314
0.825358
0.726197
0.579841
0.493016
0.443609
0.422164
0.407276
0.390903
0.381933
0.371907
0.364267
0.355683
0.348419
0.342268
0.335041
0.327325
0.319175
0.314106
0.307895
0.30042
0.293555
0.286231
0.279456
0.273447
0.266107
0.260603
0.25234
0.246621
0.240479
0.232509
0.223684
0.214115
0.206968
0.200203
0.192086
0.185108
0.174907
0.167187
0.159577
0.148816
0.136115
0.122726
0.11079
0.096787
0.0838272
0.066922
0.0480946
0.0298667
0.840757
0.840816
0.840702
0.84044
0.840064
0.839608
0.839106
0.838583
0.838039
0.837504
0.836982
0.836474
0.835962
0.835489
0.835015
0.834574
0.834139
0.833679
0.833217
0.832779
0.83236
0.831958
0.831551
0.831144
0.83074
0.830352
0.829958
0.829596
0.829236
0.828881
0.828535
0.828204
0.827893
0.827594
0.827302
0.827034
0.82678
0.82653
0.82628
0.826046
0.82582
0.82562
0.825438
0.825236
0.825064
0.824906
0.824744
0.824625
0.824524
0.824476
0.82449
0.824565
0.82453
0.80495
0.681763
0.538128
0.484493
0.444027
0.419352
0.403548
0.391885
0.381415
0.370343
0.361515
0.353105
0.344382
0.336482
0.328093
0.319945
0.313882
0.307857
0.29992
0.293906
0.286946
0.281911
0.275639
0.269553
0.264235
0.256728
0.250923
0.242929
0.237542
0.22889
0.219865
0.210777
0.202504
0.194768
0.18557
0.175922
0.1654
0.155742
0.146147
0.135505
0.124945
0.112236
0.0971621
0.079732
0.0639638
0.0460322
0.0294183
0.828732
0.828827
0.828808
0.828686
0.828497
0.828256
0.827981
0.827691
0.827393
0.827092
0.826801
0.826518
0.826233
0.825972
0.825712
0.825472
0.825221
0.824978
0.824754
0.824532
0.824314
0.824096
0.823884
0.823684
0.823473
0.823283
0.823105
0.822931
0.822751
0.822585
0.822414
0.822253
0.822103
0.821955
0.821814
0.821687
0.821561
0.821445
0.82134
0.821242
0.821161
0.821091
0.821026
0.820973
0.820933
0.820904
0.820859
0.820834
0.820804
0.820791
0.820789
0.820799
0.820832
0.819979
0.777126
0.647739
0.521009
0.459938
0.434521
0.413263
0.395491
0.380216
0.368941
0.359073
0.352914
0.344114
0.337907
0.329486
0.323019
0.316045
0.308805
0.30192
0.295121
0.289182
0.282882
0.277853
0.270151
0.264929
0.25733
0.249601
0.243484
0.235837
0.229473
0.223885
0.215393
0.206662
0.19709
0.187096
0.177501
0.16697
0.155809
0.147582
0.13796
0.125087
0.111878
0.0973832
0.0833029
0.0690755
0.0534373
0.0353868
0.814672
0.815111
0.815382
0.815537
0.815612
0.815632
0.815613
0.815582
0.815536
0.815483
0.815436
0.815392
0.815356
0.815326
0.815301
0.815285
0.815269
0.815258
0.815254
0.815247
0.815244
0.815242
0.815247
0.815251
0.815261
0.815268
0.815281
0.815293
0.815305
0.815318
0.81533
0.815343
0.815359
0.815379
0.815401
0.815426
0.815457
0.815496
0.815544
0.815604
0.815671
0.815752
0.815852
0.815942
0.81603
0.816139
0.816231
0.816319
0.816391
0.816447
0.816498
0.816531
0.816577
0.816005
0.780653
0.64272
0.510596
0.450275
0.424136
0.408081
0.392752
0.377542
0.368747
0.359733
0.352712
0.346021
0.340003
0.331799
0.32541
0.317527
0.309332
0.301786
0.296363
0.291099
0.28398
0.278088
0.272163
0.264211
0.256268
0.247749
0.241856
0.232931
0.22628
0.216445
0.208027
0.200565
0.190073
0.181236
0.172158
0.163289
0.154577
0.146465
0.134081
0.120002
0.109054
0.0928371
0.0778685
0.0630419
0.0487294
0.0323982
0.76478
0.766796
0.76822
0.769354
0.77026
0.770974
0.771621
0.772192
0.772715
0.773216
0.773702
0.774203
0.774726
0.775243
0.775779
0.776291
0.776824
0.777367
0.777907
0.778449
0.778982
0.779515
0.780047
0.780579
0.781106
0.781633
0.782147
0.782656
0.783169
0.78367
0.784178
0.78467
0.785169
0.785678
0.786163
0.786678
0.787189
0.787704
0.788246
0.788818
0.78941
0.79003
0.790656
0.791297
0.791943
0.79262
0.793319
0.794006
0.794718
0.795476
0.796249
0.797052
0.797907
0.798833
0.792438
0.703411
0.570097
0.482931
0.442141
0.417825
0.402592
0.387044
0.375122
0.364836
0.35682
0.350683
0.343079
0.337407
0.329597
0.322505
0.314501
0.309107
0.301539
0.294125
0.287129
0.280049
0.274443
0.267834
0.260953
0.253294
0.247276
0.239752
0.231452
0.221974
0.214257
0.204761
0.19604
0.187108
0.177408
0.170124
0.158345
0.150637
0.139462
0.129386
0.115975
0.101445
0.086306
0.0687875
0.0549483
0.0344791
0.561416
0.566902
0.570921
0.574046
0.576711
0.579044
0.581112
0.583076
0.584993
0.586771
0.588591
0.590348
0.592104
0.593907
0.59567
0.597483
0.599207
0.600929
0.602661
0.604456
0.606178
0.607917
0.609777
0.6116
0.61345
0.615246
0.61707
0.618924
0.620774
0.622611
0.624513
0.626365
0.628239
0.63008
0.632004
0.633798
0.635601
0.637456
0.639392
0.641299
0.643215
0.645196
0.647279
0.649406
0.651625
0.653924
0.656289
0.658756
0.661289
0.66391
0.666687
0.669558
0.672664
0.676115
0.68036
0.667212
0.554985
0.469678
0.410982
0.381935
0.366817
0.348971
0.341342
0.332379
0.326665
0.319385
0.312823
0.307943
0.302422
0.297389
0.29175
0.287254
0.282067
0.277627
0.272231
0.267183
0.261103
0.253455
0.247738
0.241929
0.235321
0.227335
0.221387
0.212552
0.204634
0.197224
0.189622
0.180838
0.173066
0.162586
0.151286
0.14207
0.133927
0.122554
0.108931
0.0976541
0.0818796
0.0631866
0.0497781
0.033284
1
1
1
1
1
1
1
1
1
1
1
1
1
1
0.999997
0.999975
0.999937
0.999931
0.999876
0.999854
0.999816
0.999717
0.999641
0.999638
0.999511
0.999413
0.999403
0.999408
0.999303
0.998918
0.99887
0.998607
0.990836
0.973542
0.96227
0.958378
0.956192
0.955012
0.954097
0.95316
0.952222
0.951275
0.950273
0.949243
0.948145
0.947008
0.94581
0.944563
0.94325
0.941609
0.914516
0.746601
0.582665
0.49358
0.450549
0.428084
0.408259
0.397755
0.386077
0.377499
0.370324
0.363796
0.356939
0.348238
0.341547
0.335349
0.327689
0.321611
0.31469
0.308658
0.302593
0.296794
0.289711
0.284164
0.277706
0.271196
0.264573
0.258125
0.251508
0.245503
0.23758
0.230269
0.222721
0.214936
0.208255
0.200995
0.191754
0.184503
0.173846
0.16357
0.152112
0.143845
0.133214
0.120383
0.109189
0.0979157
0.0836885
0.0673397
0.0475567
0.0320372
0.561416
0.566902
0.570921
0.574046
0.576711
0.579044
0.581112
0.583076
0.584993
0.586771
0.588591
0.590348
0.592104
0.593907
0.59567
0.597483
0.599207
0.600929
0.602661
0.604456
0.606178
0.607917
0.609777
0.6116
0.61345
0.615246
0.61707
0.618924
0.620774
0.622611
0.624513
0.626365
0.628239
0.63008
0.632004
0.633798
0.635601
0.637456
0.639392
0.641299
0.643215
0.645196
0.647279
0.649406
0.651625
0.653924
0.656289
0.658756
0.661289
0.66391
0.666687
0.669558
0.672664
0.676115
0.68036
0.667212
0.554985
0.469678
0.410982
0.381935
0.366817
0.348971
0.341342
0.332379
0.326665
0.319385
0.312823
0.307943
0.302422
0.297389
0.29175
0.287254
0.282067
0.277627
0.272231
0.267183
0.261103
0.253455
0.247738
0.241929
0.235321
0.227335
0.221387
0.212552
0.204634
0.197224
0.189622
0.180838
0.173066
0.162586
0.151286
0.14207
0.133927
0.122554
0.108931
0.0976541
0.0818796
0.0631866
0.0497781
0.033284
)
;
    }
}


// ************************************************************************* //
