/*--------------------------------*- C++ -*----------------------------------*\
| =========                 |                                                 |
| \\      /  F ield         | foam-extend: Open Source CFD                    |
|  \\    /   O peration     | Version:     5.0                                |
|   \\  /    A nd           | Web:         http://www.foam-extend.org         |
|    \\/     M anipulation  |                                                 |
\*---------------------------------------------------------------------------*/
FoamFile
{
    version     2.0;
    format      ascii;
    class       volVectorField;
    location    "10000";
    object      U.gas;
}
// * * * * * * * * * * * * * * * * * * * * * * * * * * * * * * * * * * * * * //

dimensions      [0 1 -1 0 0 0 0];

internalField   nonuniform List<vector> 
1000
(
(0 6.69296e-20 -8.75434e-10)
(0 3.78713e-16 -2.29399e-07)
(0 6.6566e-15 -7.68893e-06)
(0 3.9355e-14 -2.49578e-05)
(0 6.00128e-14 -4.06508e-05)
(0 -1.84908e-11 -0.000101968)
(0 -1.09212e-11 -0.000168286)
(0 -4.59266e-11 -0.00014052)
(0 -6.51545e-11 -0.00012119)
(0 -6.58634e-11 -0.000107137)
(0 -6.03012e-11 -9.69242e-05)
(0 -7.84476e-11 -8.74116e-05)
(0 -3.73552e-09 -0.000117538)
(0 -2.14871e-07 -0.000691675)
(0 -6.21795e-07 -0.000479659)
(0 -8.59231e-07 -0.000247482)
(0 -5.73348e-07 -0.000129059)
(0 -8.59169e-07 -9.05943e-05)
(0 -1.03777e-06 -6.45565e-05)
(0 -1.15671e-06 -5.05358e-05)
(0 -1.81454e-06 -4.03434e-05)
(0 -2.74239e-06 -3.4806e-05)
(0 -2.83802e-06 -3.03418e-05)
(0 -3.43938e-06 -2.70855e-05)
(0 -4.68284e-06 -2.45129e-05)
(0 -4.96488e-06 -2.26811e-05)
(0 -4.40857e-06 -2.09438e-05)
(0 -4.54729e-06 -1.91433e-05)
(0 -7.65227e-06 -1.70183e-05)
(0 -1.06717e-05 -1.67263e-05)
(0 -1.34098e-05 -1.67796e-05)
(0 -0.000199302 -9.65948e-06)
(0 -0.000323549 -5.0569e-07)
(0 -0.000304277 3.56234e-06)
(0 -0.000354383 6.77726e-06)
(0 -0.000287018 6.06445e-06)
(0 -0.000269893 5.96583e-06)
(0 -0.000287387 6.43935e-06)
(0 -0.000421749 9.461e-06)
(0 -0.000344325 7.71464e-06)
(0 -0.000292751 6.54086e-06)
(0 -0.000358645 7.9644e-06)
(0 -0.000305074 6.72321e-06)
(0 -0.00043986 9.57934e-06)
(0 -0.000331905 7.10044e-06)
(0 -0.000354107 7.36827e-06)
(0 -0.000529291 1.04938e-05)
(0 -0.00040356 7.26011e-06)
(0 -0.000370886 5.17994e-06)
(0 -0.000477716 1.71993e-06)
(0 -0.000368758 -2.49612e-06)
(0 -0.000404464 2.27849e-05)
(0 -0.000395212 2.08723e-05)
(0 -0.000455236 1.64612e-05)
(0 -0.000551226 1.5349e-05)
(0 -0.000458261 1.16023e-05)
(0 -0.000653217 1.57233e-05)
(0 -0.000501116 1.18476e-05)
(0 -0.000599934 1.31727e-05)
(0 -0.000648228 1.375e-05)
(0 -0.000659159 1.40743e-05)
(0 -0.000596172 1.29928e-05)
(0 -0.000454977 1.00639e-05)
(0 -0.000583477 1.26406e-05)
(0 -0.000625856 1.34141e-05)
(0 -0.000498009 1.09858e-05)
(0 -0.000646075 1.39975e-05)
(0 -0.000563119 1.25499e-05)
(0 -0.000667739 1.4877e-05)
(0 -0.000679178 1.51668e-05)
(0 -0.000731337 1.63404e-05)
(0 -0.000602407 1.37282e-05)
(0 -0.000803547 1.82096e-05)
(0 -0.000688858 1.59729e-05)
(0 -0.000701135 1.66103e-05)
(0 -0.000714026 1.71776e-05)
(0 -0.0007677 1.85974e-05)
(0 -0.000782099 1.89589e-05)
(0 -0.000896207 2.18951e-05)
(0 -0.00069604 1.71214e-05)
(0 -0.000783053 1.97313e-05)
(0 -0.000797761 2.01648e-05)
(0 -0.00081231 2.04566e-05)
(0 -0.000982029 2.52485e-05)
(0 -0.000942547 2.4698e-05)
(0 -0.000777971 2.05361e-05)
(0 -0.00103921 2.79305e-05)
(0 -0.000738256 2.07606e-05)
(0 -0.000823998 2.37666e-05)
(0 -0.000802053 2.3096e-05)
(0 -0.00119709 3.42249e-05)
(0 -0.000964996 2.83903e-05)
(0 -0.000850485 2.64774e-05)
(0 -0.00105974 3.35656e-05)
(0 -0.00114593 3.65602e-05)
(0 -0.000995317 3.28116e-05)
(0 -0.00096761 3.36549e-05)
(0 -0.000943058 3.44248e-05)
(0 -0.00140748 5.08552e-05)
(0 -0.0012674 4.59944e-05)
(0 -4.92102e-07 -0.000851922)
(0 -7.59135e-07 -0.000505211)
(0 -6.58913e-07 -0.00025522)
(0 -6.93027e-07 -0.000161662)
(0 -9.30264e-07 -0.000111081)
(0 -2.10808e-06 -7.5987e-05)
(0 -2.19335e-06 -5.99878e-05)
(0 -2.28343e-06 -4.9078e-05)
(0 -3.31038e-06 -4.22081e-05)
(0 -4.47869e-06 -3.70206e-05)
(0 -5.11566e-06 -3.3949e-05)
(0 -6.36918e-06 -3.04163e-05)
(0 -0.000169434 -2.16154e-05)
(0 -0.000460038 -2.60111e-06)
(0 -0.00040418 3.65369e-06)
(0 -0.0003304 5.72866e-06)
(0 -0.000518969 1.14014e-05)
(0 -0.000402558 9.07433e-06)
(0 -0.000435239 9.94927e-06)
(0 -0.000385789 8.85124e-06)
(0 -0.00048359 1.11107e-05)
(0 -0.00042518 9.76448e-06)
(0 -0.000538566 1.23603e-05)
(0 -0.000494139 1.13152e-05)
(0 -0.000506675 1.15693e-05)
(0 -0.000493519 1.1225e-05)
(0 -0.00048184 1.08917e-05)
(0 -0.000576031 1.29071e-05)
(0 -0.000505832 1.11841e-05)
(0 -0.00072488 1.57265e-05)
(0 -0.000483587 1.01488e-05)
(0 -0.000709966 1.41565e-05)
(0 -0.000644356 1.26435e-05)
(0 -0.000657362 1.45254e-05)
(0 -0.000633141 1.60595e-05)
(0 -0.000508433 1.36891e-05)
(0 -0.000651266 1.80664e-05)
(0 -0.000522385 1.46677e-05)
(0 -0.000577394 1.62802e-05)
(0 -0.000677433 1.91016e-05)
(0 -0.000542807 1.52671e-05)
(0 -0.000659364 1.84419e-05)
(0 -0.000606214 1.67863e-05)
(0 -0.000612638 1.67153e-05)
(0 -0.0008011 2.13018e-05)
(0 -0.000686698 1.75082e-05)
(0 -0.000864507 2.05022e-05)
(0 -0.000926096 1.91352e-05)
(0 -0.000926105 1.39405e-05)
(0 -0.000726968 3.18239e-06)
(0 -0.000681725 -7.06082e-06)
(0 -0.000616111 2.25564e-05)
(0 -0.0010171 7.91499e-05)
(0 -0.000675898 4.32078e-05)
(0 -0.000758796 3.74733e-05)
(0 -0.000742375 3.20907e-05)
(0 -0.000869351 3.39664e-05)
(0 -0.000984162 3.54069e-05)
(0 -0.000751313 2.50393e-05)
(0 -0.000760999 2.35173e-05)
(0 -0.000923135 2.74123e-05)
(0 -0.0011658 3.38214e-05)
(0 -0.0011082 3.2024e-05)
(0 -0.00100058 2.87932e-05)
(0 -0.000913145 2.59812e-05)
(0 -0.00128774 3.67754e-05)
(0 -0.000847444 2.46858e-05)
(0 -0.00122684 3.60272e-05)
(0 -0.00116444 3.45197e-05)
(0 -0.00117398 3.50342e-05)
(0 -0.00100642 3.06825e-05)
(0 -0.00096682 3.06224e-05)
(0 -0.00085378 2.75876e-05)
(0 -0.00103276 3.32865e-05)
(0 -0.00122425 3.9823e-05)
(0 -0.0013977 4.58557e-05)
(0 -0.00140818 4.70716e-05)
(0 -0.0010652 3.70382e-05)
(0 -0.00126258 4.42863e-05)
(0 -0.000901949 3.23556e-05)
(0 -0.00135968 4.90008e-05)
(0 -0.00121663 4.45174e-05)
(0 -0.000918613 3.47265e-05)
(0 -0.00138328 5.2341e-05)
(0 -0.0013912 5.4368e-05)
(0 -0.000933582 3.80632e-05)
(0 -0.00118279 4.89143e-05)
(0 -0.00125261 5.35679e-05)
(0 -0.00141203 6.28808e-05)
(0 -0.00103053 4.76823e-05)
(0 -0.00098834 4.79085e-05)
(0 -0.000949991 4.76149e-05)
(0 -0.00133904 6.86991e-05)
(0 -0.00151467 7.9977e-05)
(0 -0.00126054 6.97046e-05)
(0 -0.00113041 6.61211e-05)
(0 -0.00131855 8.15106e-05)
(0 -0.00138634 9.26758e-05)
(0 -0.00145967 9.98041e-05)
(0 -0.00119751 8.53056e-05)
(0 -0.000516996 -2.58906e-06)
(0 -0.000448949 1.35265e-06)
(0 -0.00062905 6.78332e-06)
(0 -0.000579778 8.48322e-06)
(0 -0.000425965 7.29081e-06)
(0 -0.000499495 9.44496e-06)
(0 -0.000512602 1.02841e-05)
(0 -0.000552384 1.1518e-05)
(0 -0.000567066 1.21168e-05)
(0 -0.000684451 1.4824e-05)
(0 -0.000543067 1.17812e-05)
(0 -0.000510931 1.09542e-05)
(0 -0.00073872 1.53999e-05)
(0 -0.000676714 1.38586e-05)
(0 -0.000822298 1.86039e-05)
(0 -0.000745112 1.98483e-05)
(0 -0.000717004 2.12535e-05)
(0 -0.000768262 2.33995e-05)
(0 -0.000738548 2.28629e-05)
(0 -0.000677902 2.11823e-05)
(0 -0.000802357 2.5258e-05)
(0 -0.000732406 2.31774e-05)
(0 -0.000707298 2.24979e-05)
(0 -0.000717061 2.28991e-05)
(0 -0.000635853 2.03595e-05)
(0 -0.000672252 2.15723e-05)
(0 -0.000921416 2.95692e-05)
(0 -0.000834799 2.67243e-05)
(0 -0.00107044 3.40698e-05)
(0 -0.000955601 3.00749e-05)
(0 -0.000684303 2.1106e-05)
(0 -0.000790566 2.37032e-05)
(0 -0.000799247 2.36496e-05)
(0 -0.000807967 2.43186e-05)
(0 -0.000745232 2.30373e-05)
(0 -0.00108217 3.41472e-05)
(0 -0.000971299 3.1054e-05)
(0 -0.000840346 2.70516e-05)
(0 -0.000741931 2.3942e-05)
(0 -0.000998389 3.21953e-05)
(0 -0.00120906 3.87575e-05)
(0 -0.000831239 2.635e-05)
(0 -0.00122947 3.83143e-05)
(0 -0.000773903 2.34825e-05)
(0 -0.000849776 2.47515e-05)
(0 -0.00110609 3.02644e-05)
(0 -0.00104907 2.58831e-05)
(0 -0.000901085 1.85681e-05)
(0 -0.000901142 1.29781e-05)
(0 -0.00105043 5.73074e-06)
(0 -0.00111232 -7.52538e-06)
(0 -0.00117276 1.07822e-05)
(0 -0.00104718 8.33899e-05)
(0 -0.00104739 9.49144e-05)
(0 -0.000985498 7.13457e-05)
(0 -0.00104003 6.49176e-05)
(0 -0.00144045 7.54646e-05)
(0 -0.00155114 7.24489e-05)
(0 -0.00156262 6.57026e-05)
(0 -0.00117896 4.60764e-05)
(0 -0.00147792 5.38612e-05)
(0 -0.00158136 5.48952e-05)
(0 -0.00132242 4.60148e-05)
(0 -0.00140403 4.88986e-05)
(0 -0.00108882 3.79987e-05)
(0 -0.00104421 3.65168e-05)
(0 -0.00133614 4.66393e-05)
(0 -0.00126838 4.47972e-05)
(0 -0.00134159 4.79712e-05)
(0 -0.0011009 4.02839e-05)
(0 -0.00101188 3.8394e-05)
(0 -0.00128013 4.97678e-05)
(0 -0.00152267 6.02937e-05)
(0 -0.00101836 4.10444e-05)
(0 -0.00116532 4.67353e-05)
(0 -0.00106631 4.33055e-05)
(0 -0.00111617 4.565e-05)
(0 -0.00163694 6.91582e-05)
(0 -0.00123003 5.3173e-05)
(0 -0.00111914 4.9789e-05)
(0 -0.00102645 4.60676e-05)
(0 -0.00102631 4.6258e-05)
(0 -0.0013653 6.28032e-05)
(0 -0.00102371 4.77564e-05)
(0 -0.00116771 5.58944e-05)
(0 -0.00128743 6.35758e-05)
(0 -0.00110912 5.6007e-05)
(0 -0.00101349 5.22226e-05)
(0 -0.00115281 6.13182e-05)
(0 -0.00100463 5.60173e-05)
(0 -0.00159408 9.24796e-05)
(0 -0.00139758 8.30677e-05)
(0 -0.00123964 7.27851e-05)
(0 -0.00129474 7.75002e-05)
(0 -0.00135595 8.51294e-05)
(0 -0.00126543 8.3082e-05)
(0 -0.000978688 6.78686e-05)
(0 -0.00138342 9.93681e-05)
(0 -0.00109388 8.09263e-05)
(0 -0.000980663 7.43802e-05)
(0 -0.000849461 8.13805e-07)
(0 -0.000858772 6.28737e-06)
(0 -0.000650954 9.6317e-06)
(0 -0.000717306 1.4365e-05)
(0 -0.000885701 2.11025e-05)
(0 -0.00089531 2.38425e-05)
(0 -0.00085789 2.45666e-05)
(0 -0.000749597 2.25842e-05)
(0 -0.000758369 2.36818e-05)
(0 -0.000888205 2.84078e-05)
(0 -0.00106659 3.45863e-05)
(0 -0.000958339 3.11696e-05)
(0 -0.000830027 2.67985e-05)
(0 -0.000838713 2.69931e-05)
(0 -0.00093672 3.08743e-05)
(0 -0.00112352 3.81975e-05)
(0 -0.000907151 3.15828e-05)
(0 -0.0010771 3.81004e-05)
(0 -0.00108692 3.88556e-05)
(0 -0.00116531 4.1956e-05)
(0 -0.000817629 2.95993e-05)
(0 -0.00111596 4.05569e-05)
(0 -0.000911037 3.32054e-05)
(0 -0.000803733 2.93505e-05)
(0 -0.00108062 3.94651e-05)
(0 -0.000933719 3.4071e-05)
(0 -0.00116274 4.23119e-05)
(0 -0.00132822 4.80565e-05)
(0 -0.000912387 3.27123e-05)
(0 -0.000919106 3.25307e-05)
(0 -0.00119831 4.16934e-05)
(0 -0.0013684 4.67066e-05)
(0 -0.000939949 3.17596e-05)
(0 -0.00138922 4.71367e-05)
(0 -0.00123472 4.23918e-05)
(0 -0.00117423 4.07832e-05)
(0 -0.00106377 3.72805e-05)
(0 -0.00133846 4.71382e-05)
(0 -0.00143689 5.06467e-05)
(0 -0.00094272 3.31604e-05)
(0 -0.00103864 3.62797e-05)
(0 -0.00137125 4.72826e-05)
(0 -0.00100266 3.38611e-05)
(0 -0.000963923 3.15092e-05)
(0 -0.00139244 4.33681e-05)
(0 -0.000972627 2.81712e-05)
(0 -0.00132087 3.4154e-05)
(0 -0.00112623 2.42032e-05)
(0 -0.00112951 1.76229e-05)
(0 -0.000944203 7.90485e-06)
(0 -0.00151998 1.1705e-06)
(0 -0.00104206 1.77451e-06)
(0 -0.00115145 6.34861e-05)
(0 -0.00109296 0.000110258)
(0 -0.00115401 0.000109061)
(0 -0.00155676 0.000124328)
(0 -0.0012098 8.01638e-05)
(0 -0.00177396 9.85166e-05)
(0 -0.00148206 7.08448e-05)
(0 -0.00156807 6.93696e-05)
(0 -0.00156691 6.34536e-05)
(0 -0.00126831 4.90608e-05)
(0 -0.00177137 6.70781e-05)
(0 -0.00165889 6.30647e-05)
(0 -0.00139576 5.39477e-05)
(0 -0.00165391 6.3912e-05)
(0 -0.00114991 4.42489e-05)
(0 -0.0014657 5.69295e-05)
(0 -0.00119894 4.81536e-05)
(0 -0.00125455 5.13182e-05)
(0 -0.00175115 7.26064e-05)
(0 -0.00163802 6.91373e-05)
(0 -0.00145309 6.23461e-05)
(0 -0.00173897 7.72143e-05)
(0 -0.0011332 5.11791e-05)
(0 -0.00144363 6.57875e-05)
(0 -0.0010815 5.00915e-05)
(0 -0.00152102 6.99035e-05)
(0 -0.00143293 6.82361e-05)
(0 -0.00135314 6.60148e-05)
(0 -0.00159912 7.8869e-05)
(0 -0.00121351 6.03337e-05)
(0 -0.00115239 5.7806e-05)
(0 -0.001201 6.25904e-05)
(0 -0.00125491 6.7032e-05)
(0 -0.00104163 5.67008e-05)
(0 -0.00112984 6.33414e-05)
(0 -0.00102979 5.86927e-05)
(0 -0.00106687 6.27513e-05)
(0 -0.00115923 7.01628e-05)
(0 -0.00150649 9.02947e-05)
(0 -0.00159173 9.58924e-05)
(0 -0.000987186 6.02382e-05)
(0 -0.00106483 6.63178e-05)
(0 -0.00128591 8.15913e-05)
(0 -0.00104081 6.88378e-05)
(0 -0.00150062 0.000103751)
(0 -0.00123273 8.78557e-05)
(0 -0.00128507 9.84483e-05)
(0 -0.000980474 8.11509e-05)
(0 -0.000967743 2.54777e-06)
(0 -0.000971481 1.04056e-05)
(0 -0.00084863 1.50614e-05)
(0 -0.000934208 2.17003e-05)
(0 -0.000939515 2.56863e-05)
(0 -0.000992537 3.01549e-05)
(0 -0.00110992 3.6217e-05)
(0 -0.00100546 3.44456e-05)
(0 -0.000880008 3.11587e-05)
(0 -0.00113184 4.09168e-05)
(0 -0.000931963 3.40617e-05)
(0 -0.00121392 4.44685e-05)
(0 -0.00138491 5.05907e-05)
(0 -0.00130712 4.77234e-05)
(0 -0.00110804 4.08814e-05)
(0 -0.00132438 4.96265e-05)
(0 -0.00112203 4.26348e-05)
(0 -0.000893323 3.4342e-05)
(0 -0.000980043 3.80252e-05)
(0 -0.00120466 4.70601e-05)
(0 -0.00128273 5.03389e-05)
(0 -0.00137056 5.39457e-05)
(0 -0.00129701 5.11283e-05)
(0 -0.00105552 4.1622e-05)
(0 -0.00139283 5.48978e-05)
(0 -0.00117897 4.63732e-05)
(0 -0.00107208 4.20311e-05)
(0 -0.00113131 4.40972e-05)
(0 -0.00133762 5.16903e-05)
(0 -0.00142831 5.45888e-05)
(0 -0.000998432 3.76927e-05)
(0 -0.00144258 5.38334e-05)
(0 -0.00115988 4.29807e-05)
(0 -0.00116567 4.3226e-05)
(0 -0.000975951 3.64027e-05)
(0 -0.00156885 5.89196e-05)
(0 -0.0014773 5.57817e-05)
(0 -0.0013187 4.99499e-05)
(0 -0.00158901 6.02009e-05)
(0 -0.00108758 4.10539e-05)
(0 -0.00133443 4.99843e-05)
(0 -0.00104812 3.87337e-05)
(0 -0.00100799 3.64357e-05)
(0 -0.0012778 4.47053e-05)
(0 -0.00135348 4.51441e-05)
(0 -0.00128658 3.99532e-05)
(0 -0.00129095 3.60947e-05)
(0 -0.00111882 2.66773e-05)
(0 -0.00145375 2.71785e-05)
(0 -0.00165549 2.11251e-05)
(0 -0.00118814 8.22488e-06)
(0 -0.00147008 3.85659e-06)
(0 -0.00111476 2.07084e-05)
(0 -0.00162749 0.000161158)
(0 -0.00156724 0.000187325)
(0 -0.00136535 0.000134518)
(0 -0.00178059 0.000137395)
(0 -0.00177261 0.000110296)
(0 -0.00128642 6.86475e-05)
(0 -0.00187381 8.88733e-05)
(0 -0.00147466 6.38243e-05)
(0 -0.0017417 7.17079e-05)
(0 -0.00138879 5.59372e-05)
(0 -0.00153721 6.19383e-05)
(0 -0.00172301 6.99191e-05)
(0 -0.00137491 5.62807e-05)
(0 -0.00124631 5.16365e-05)
(0 -0.00113894 4.76323e-05)
(0 -0.00181396 7.81297e-05)
(0 -0.00142873 6.23933e-05)
(0 -0.00117716 5.13319e-05)
(0 -0.00128517 5.74022e-05)
(0 -0.00122379 5.56658e-05)
(0 -0.00134209 6.26113e-05)
(0 -0.00157342 7.48698e-05)
(0 -0.00126981 6.07993e-05)
(0 -0.00176891 8.61877e-05)
(0 -0.00115025 5.52721e-05)
(0 -0.00175299 8.59406e-05)
(0 -0.00163596 8.13118e-05)
(0 -0.00124164 6.30699e-05)
(0 -0.00117956 6.04165e-05)
(0 -0.00112175 5.82222e-05)
(0 -0.00159947 8.44114e-05)
(0 -0.00169385 9.15624e-05)
(0 -0.00140163 7.82251e-05)
(0 -0.00166671 9.50144e-05)
(0 -0.00112784 6.61025e-05)
(0 -0.00153306 9.19151e-05)
(0 -0.0015184 9.31188e-05)
(0 -0.00109657 6.75409e-05)
(0 -0.000997937 6.17595e-05)
(0 -0.00103192 6.56164e-05)
(0 -0.00123456 7.90231e-05)
(0 -0.00110468 7.09453e-05)
(0 -0.00127069 8.46156e-05)
(0 -0.00102748 7.09911e-05)
(0 -0.00106178 7.67022e-05)
(0 -0.00129006 9.94414e-05)
(0 -0.00143306 0.000119819)
(0 -0.00135878 5.17283e-06)
(0 -0.00121175 1.51715e-05)
(0 -0.000995557 1.97331e-05)
(0 -0.00100003 2.54989e-05)
(0 -0.00122792 3.65314e-05)
(0 -0.00116869 3.84308e-05)
(0 -0.000969862 3.4112e-05)
(0 -0.00131818 4.85156e-05)
(0 -0.00102312 3.88092e-05)
(0 -0.000982913 3.80137e-05)
(0 -0.00103206 4.03509e-05)
(0 -0.00142543 5.5999e-05)
(0 -0.00109082 4.29353e-05)
(0 -0.00135364 5.34085e-05)
(0 -0.00105058 4.1726e-05)
(0 -0.00105504 4.2298e-05)
(0 -0.00145675 5.89578e-05)
(0 -0.00156015 6.36601e-05)
(0 -0.00123641 5.07889e-05)
(0 -0.00107173 4.42645e-05)
(0 -0.000985896 4.08852e-05)
(0 -0.00113073 4.70306e-05)
(0 -0.00125415 5.22403e-05)
(0 -0.00132843 5.53296e-05)
(0 -0.00119963 4.99382e-05)
(0 -0.00150465 6.2502e-05)
(0 -0.00109783 4.54364e-05)
(0 -0.00121155 4.98782e-05)
(0 -0.00135056 5.52273e-05)
(0 -0.00143469 5.81804e-05)
(0 -0.00143943 5.78466e-05)
(0 -0.00129219 5.15267e-05)
(0 -0.0012965 5.14252e-05)
(0 -0.00137302 5.43915e-05)
(0 -0.00112685 4.47205e-05)
(0 -0.001081 4.30524e-05)
(0 -0.00118725 4.74353e-05)
(0 -0.00138889 5.55848e-05)
(0 -0.00131922 5.2765e-05)
(0 -0.00139611 5.56146e-05)
(0 -0.00114512 4.52712e-05)
(0 -0.0010523 4.106e-05)
(0 -0.00148957 5.69573e-05)
(0 -0.00110388 4.09917e-05)
(0 -0.00106081 3.77568e-05)
(0 -0.00159609 5.34123e-05)
(0 -0.00116459 3.57293e-05)
(0 -0.00171467 4.65037e-05)
(0 -0.00143535 3.27791e-05)
(0 -0.00123696 2.21994e-05)
(0 -0.0011367 1.43554e-05)
(0 -0.00109812 7.11116e-06)
(0 -0.00147608 3.34249e-06)
(0 -0.00155042 9.58307e-05)
(0 -0.00141181 0.00018338)
(0 -0.00196986 0.000227952)
(0 -0.00147152 0.0001253)
(0 -0.00145428 9.96966e-05)
(0 -0.00159967 9.22542e-05)
(0 -0.00167935 8.2938e-05)
(0 -0.00157528 7.10718e-05)
(0 -0.00128237 5.57728e-05)
(0 -0.00140322 6.06013e-05)
(0 -0.00133213 5.80797e-05)
(0 -0.00121332 5.24074e-05)
(0 -0.00126466 5.57459e-05)
(0 -0.00115603 5.10757e-05)
(0 -0.00115171 5.16607e-05)
(0 -0.00152854 6.80743e-05)
(0 -0.00152304 6.86766e-05)
(0 -0.00113873 5.25548e-05)
(0 -0.00151049 7.11394e-05)
(0 -0.00129016 6.20769e-05)
(0 -0.00179651 8.73394e-05)
(0 -0.00141312 6.96714e-05)
(0 -0.00148398 7.33198e-05)
(0 -0.00166049 8.28082e-05)
(0 -0.00120258 6.01319e-05)
(0 -0.00154606 7.75348e-05)
(0 -0.00113828 5.85392e-05)
(0 -0.00173336 9.10412e-05)
(0 -0.00107906 5.83287e-05)
(0 -0.00107258 5.88802e-05)
(0 -0.00111213 6.0288e-05)
(0 -0.00126998 6.93125e-05)
(0 -0.0014006 7.78831e-05)
(0 -0.00119219 6.76634e-05)
(0 -0.00118271 6.96847e-05)
(0 -0.00111991 6.67151e-05)
(0 -0.00128532 7.79827e-05)
(0 -0.0013456 8.49309e-05)
(0 -0.00126378 8.09585e-05)
(0 -0.00131938 8.50128e-05)
(0 -0.00111919 7.27206e-05)
(0 -0.00101099 6.67885e-05)
(0 -0.000957871 6.52624e-05)
(0 -0.00119288 8.52088e-05)
(0 -0.00117623 8.74405e-05)
(0 -0.00146251 0.000111746)
(0 -0.00143279 0.000112241)
(0 -0.00154204 8.40805e-06)
(0 -0.00100991 1.54404e-05)
(0 -0.00129703 2.94595e-05)
(0 -0.000977626 2.75604e-05)
(0 -0.00112245 3.61238e-05)
(0 -0.00157806 5.53633e-05)
(0 -0.00125063 4.64981e-05)
(0 -0.00125511 4.85374e-05)
(0 -0.0014075 5.58824e-05)
(0 -0.00109109 4.40798e-05)
(0 -0.00114662 4.68294e-05)
(0 -0.00161033 6.61988e-05)
(0 -0.00110132 4.5446e-05)
(0 -0.00135026 5.59176e-05)
(0 -0.0010599 4.40982e-05)
(0 -0.00152815 6.39645e-05)
(0 -0.00136216 5.74004e-05)
(0 -0.00106882 4.53225e-05)
(0 -0.00117358 5.00206e-05)
(0 -0.00123529 5.28659e-05)
(0 -0.00137586 5.90715e-05)
(0 -0.00130653 5.62412e-05)
(0 -0.00118482 5.10724e-05)
(0 -0.00166261 7.16757e-05)
(0 -0.0011902 5.12566e-05)
(0 -0.00104367 4.48594e-05)
(0 -0.0010914 4.67561e-05)
(0 -0.00139764 5.9618e-05)
(0 -0.001146 4.86271e-05)
(0 -0.00157929 6.65995e-05)
(0 -0.00140699 5.89388e-05)
(0 -0.00126918 5.28534e-05)
(0 -0.00141347 5.86062e-05)
(0 -0.00141669 5.86071e-05)
(0 -0.00111112 4.59417e-05)
(0 -0.00128048 5.29883e-05)
(0 -0.00122196 5.06321e-05)
(0 -0.00116867 4.84598e-05)
(0 -0.00122666 5.08112e-05)
(0 -0.00112209 4.63179e-05)
(0 -0.00112422 4.61043e-05)
(0 -0.00123377 5.00583e-05)
(0 -0.00118015 4.71089e-05)
(0 -0.00113137 4.40906e-05)
(0 -0.00108693 4.09524e-05)
(0 -0.001539 5.52849e-05)
(0 -0.00125004 4.20533e-05)
(0 -0.00164739 5.07624e-05)
(0 -0.00139406 3.82852e-05)
(0 -0.00140236 3.32264e-05)
(0 -0.00157869 3.108e-05)
(0 -0.00150458 2.37263e-05)
(0 -0.00114315 1.5127e-05)
(0 -0.0014569 4.95411e-05)
(0 -0.001879 0.000188413)
(0 -0.00136067 0.00014222)
(0 -0.00143645 0.000122612)
(0 -0.00173302 0.000124392)
(0 -0.00145703 8.81187e-05)
(0 -0.00131351 6.81069e-05)
(0 -0.00119546 5.60762e-05)
(0 -0.00129466 5.96351e-05)
(0 -0.00128753 5.8118e-05)
(0 -0.00187658 8.53708e-05)
(0 -0.00122047 5.60278e-05)
(0 -0.00164219 7.60414e-05)
(0 -0.00115951 5.37551e-05)
(0 -0.00145631 6.81006e-05)
(0 -0.00131236 6.04862e-05)
(0 -0.00124748 5.79237e-05)
(0 -0.00130072 6.23126e-05)
(0 -0.00129501 6.31506e-05)
(0 -0.00150371 7.42868e-05)
(0 -0.0014182 6.95578e-05)
(0 -0.00178673 8.9194e-05)
(0 -0.00116133 5.8358e-05)
(0 -0.00176923 8.8436e-05)
(0 -0.00120141 6.10197e-05)
(0 -0.0011945 6.10505e-05)
(0 -0.00153617 8.12204e-05)
(0 -0.00123734 6.52445e-05)
(0 -0.00151701 8.30231e-05)
(0 -0.00170543 9.41565e-05)
(0 -0.00110538 6.21946e-05)
(0 -0.00109782 6.25978e-05)
(0 -0.00104557 5.99114e-05)
(0 -0.00103854 6.14848e-05)
(0 -0.00112448 6.8483e-05)
(0 -0.00106792 6.65029e-05)
(0 -0.00105955 6.67854e-05)
(0 -0.0015082 9.70391e-05)
(0 -0.00132951 8.56095e-05)
(0 -0.00103117 6.70737e-05)
(0 -0.0010663 7.16244e-05)
(0 -0.0010537 7.1839e-05)
(0 -0.0011422 8.10205e-05)
(0 -0.00118447 8.6811e-05)
(0 -0.00116718 8.90409e-05)
(0 -0.00114992 8.87654e-05)
(0 -0.00107602 8.40306e-05)
(0 -0.00145034 1.06692e-05)
(0 -0.00165412 2.93069e-05)
(0 -0.00146867 3.60031e-05)
(0 -0.00147663 4.30034e-05)
(0 -0.00126078 4.07478e-05)
(0 -0.00105454 3.6507e-05)
(0 -0.00158663 5.75439e-05)
(0 -0.00127265 4.76651e-05)
(0 -0.00106298 4.06986e-05)
(0 -0.0012782 4.96999e-05)
(0 -0.00121967 4.79348e-05)
(0 -0.00142557 5.64592e-05)
(0 -0.00160664 6.39656e-05)
(0 -0.00160947 6.43716e-05)
(0 -0.00122833 4.93357e-05)
(0 -0.00161475 6.51884e-05)
(0 -0.00161714 6.5646e-05)
(0 -0.00129549 5.28703e-05)
(0 -0.00172962 7.09438e-05)
(0 -0.00162356 6.68645e-05)
(0 -0.0017339 7.16966e-05)
(0 -0.00137048 5.68807e-05)
(0 -0.00153352 6.37872e-05)
(0 -0.00124284 5.17502e-05)
(0 -0.00174197 7.25065e-05)
(0 -0.00124565 5.17896e-05)
(0 -0.00130941 5.43488e-05)
(0 -0.00163867 6.78541e-05)
(0 -0.00124999 5.15859e-05)
(0 -0.0010951 4.50344e-05)
(0 -0.0010965 4.48924e-05)
(0 -0.00155002 6.32225e-05)
(0 -0.001759 7.15435e-05)
(0 -0.00155409 6.30899e-05)
(0 -0.00125966 5.10923e-05)
(0 -0.00120384 4.8848e-05)
(0 -0.00165716 6.73439e-05)
(0 -0.00139707 5.68659e-05)
(0 -0.00132869 5.40911e-05)
(0 -0.00147801 6.00765e-05)
(0 -0.00133179 5.39551e-05)
(0 -0.00111125 4.47409e-05)
(0 -0.00157123 6.25985e-05)
(0 -0.00178394 6.99304e-05)
(0 -0.00111727 4.27986e-05)
(0 -0.00141498 5.24836e-05)
(0 -0.00117261 4.16149e-05)
(0 -0.00150426 5.04403e-05)
(0 -0.00118298 3.69453e-05)
(0 -0.00152044 4.35452e-05)
(0 -0.00119808 3.10205e-05)
(0 -0.00163265 3.80124e-05)
(0 -0.00146856 3.18196e-05)
(0 -0.00131964 3.29574e-05)
(0 -0.00146321 9.42806e-05)
(0 -0.00132634 0.000130211)
(0 -0.00149843 0.000123652)
(0 -0.00181331 0.000118746)
(0 -0.00201645 0.000111486)
(0 -0.0015702 7.81825e-05)
(0 -0.00122864 5.61674e-05)
(0 -0.00171252 7.60272e-05)
(0 -0.00144463 6.32705e-05)
(0 -0.00168699 7.39835e-05)
(0 -0.00167743 7.53352e-05)
(0 -0.00177209 7.95919e-05)
(0 -0.00122791 5.66103e-05)
(0 -0.00155976 7.14016e-05)
(0 -0.00121618 5.60462e-05)
(0 -0.00116034 5.39834e-05)
(0 -0.00125962 6.00634e-05)
(0 -0.00183643 8.7488e-05)
(0 -0.00182699 8.74318e-05)
(0 -0.00129961 6.26488e-05)
(0 -0.00159634 7.75472e-05)
(0 -0.00158889 7.90419e-05)
(0 -0.00117008 5.79528e-05)
(0 -0.00121721 6.15967e-05)
(0 -0.00115833 5.9251e-05)
(0 -0.00176435 9.14377e-05)
(0 -0.00114617 5.97015e-05)
(0 -0.00163525 8.58744e-05)
(0 -0.00108502 5.7329e-05)
(0 -0.00135973 7.46685e-05)
(0 -0.00160233 8.97071e-05)
(0 -0.00110799 6.37161e-05)
(0 -0.00140284 8.26753e-05)
(0 -0.00139101 8.35973e-05)
(0 -0.00145922 9.00528e-05)
(0 -0.00153465 9.5001e-05)
(0 -0.00162127 0.000102858)
(0 -0.00109825 7.05195e-05)
(0 -0.00104065 6.87617e-05)
(0 -0.00147661 9.86401e-05)
(0 -0.00101687 6.92753e-05)
(0 -0.00121208 8.41303e-05)
(0 -0.00133351 9.45189e-05)
(0 -0.00148678 0.000110851)
(0 -0.00146239 0.000110973)
(0 -0.00126621 9.98609e-05)
(0 -0.00139138 7.14103e-06)
(0 -0.001342 1.65897e-05)
(0 -0.00206924 3.42058e-05)
(0 -0.00183282 3.52634e-05)
(0 -0.00130169 2.74308e-05)
(0 -0.0015644 3.49583e-05)
(0 -0.00142348 3.32107e-05)
(0 -0.00136222 3.2799e-05)
(0 -0.00136233 3.34909e-05)
(0 -0.00130535 3.26758e-05)
(0 -0.00149123 3.7779e-05)
(0 -0.00184103 4.71389e-05)
(0 -0.00164624 4.25809e-05)
(0 -0.00208372 5.43061e-05)
(0 -0.00130143 3.42024e-05)
(0 -0.00164244 4.34046e-05)
(0 -0.0019484 5.18843e-05)
(0 -0.0018318 4.92188e-05)
(0 -0.00194411 5.27514e-05)
(0 -0.00141227 3.85857e-05)
(0 -0.001293 3.56421e-05)
(0 -0.00134763 3.75416e-05)
(0 -0.00171999 4.82181e-05)
(0 -0.00162758 4.58722e-05)
(0 -0.00205915 5.82093e-05)
(0 -0.00146912 4.16975e-05)
(0 -0.00162194 4.62071e-05)
(0 -0.00205219 5.85989e-05)
(0 -0.00170837 4.88633e-05)
(0 -0.00204795 5.8721e-05)
(0 -0.0016153 4.63157e-05)
(0 -0.0018036 5.17645e-05)
(0 -0.00204209 5.86633e-05)
(0 -0.00139113 4.00902e-05)
(0 -0.00191079 5.50459e-05)
(0 -0.00152697 4.41477e-05)
(0 -0.00127105 3.69826e-05)
(0 -0.00132478 3.88071e-05)
(0 -0.00126804 3.72763e-05)
(0 -0.00202631 5.97657e-05)
(0 -0.00144556 4.28063e-05)
(0 -0.00189528 5.62999e-05)
(0 -0.0017822 5.2916e-05)
(0 -0.00201855 5.97095e-05)
(0 -0.00151334 4.43473e-05)
(0 -0.00131596 3.79733e-05)
(0 -0.00201902 5.69895e-05)
(0 -0.00189496 5.18719e-05)
(0 -0.00126547 3.33342e-05)
(0 -0.00169162 4.25622e-05)
(0 -0.00203669 4.83251e-05)
(0 -0.00180406 3.95373e-05)
(0 -0.00133858 2.51898e-05)
(0 -0.0017148 1.99653e-05)
(0 -0.00169922 3.62658e-05)
(0 -0.00191175 0.000155122)
(0 -0.00164413 0.000118892)
(0 -0.00170169 8.71151e-05)
(0 -0.00166022 6.7435e-05)
(0 -0.00180807 6.78454e-05)
(0 -0.00139528 4.89223e-05)
(0 -0.0013772 4.86364e-05)
(0 -0.00136449 4.76693e-05)
(0 -0.00155562 5.49353e-05)
(0 -0.00192907 6.81423e-05)
(0 -0.00146031 5.25837e-05)
(0 -0.00190145 7.14674e-05)
(0 -0.00131535 4.98286e-05)
(0 -0.00143048 5.54452e-05)
(0 -0.00124356 4.8938e-05)
(0 -0.0018499 7.40031e-05)
(0 -0.00128013 5.09612e-05)
(0 -0.00132986 5.34748e-05)
(0 -0.00145313 5.91204e-05)
(0 -0.00144314 5.91086e-05)
(0 -0.00190859 7.87441e-05)
(0 -0.00157826 6.6235e-05)
(0 -0.00148245 6.46518e-05)
(0 -0.00133024 5.92539e-05)
(0 -0.00172949 7.69542e-05)
(0 -0.00137252 6.22969e-05)
(0 -0.00123702 5.74297e-05)
(0 -0.0011239 5.31279e-05)
(0 -0.00140392 6.83396e-05)
(0 -0.00114945 5.75801e-05)
(0 -0.00130742 6.80512e-05)
(0 -0.00129296 6.83834e-05)
(0 -0.00121759 6.59962e-05)
(0 -0.00168194 9.19202e-05)
(0 -0.00104026 5.79345e-05)
(0 -0.00164016 9.54725e-05)
(0 -0.00115974 7.12036e-05)
(0 -0.00133358 8.3931e-05)
(0 -0.00103021 6.54687e-05)
(0 -0.00101503 6.78551e-05)
(0 -0.00104427 7.03583e-05)
(0 -0.000982654 6.7576e-05)
(0 -0.00130547 9.54034e-05)
(0 -0.0010436 7.87656e-05)
(0 -0.00113258 8.85607e-05)
(0 -0.00330741 2.24258e-06)
(0 -0.00355091 6.20509e-06)
(0 -0.00285655 6.64674e-06)
(0 -0.00318231 8.60509e-06)
(0 -0.00318539 9.43397e-06)
(0 -0.00286637 8.98365e-06)
(0 -0.00318143 1.04356e-05)
(0 -0.00357341 1.21379e-05)
(0 -0.00300358 1.04311e-05)
(0 -0.00355842 1.26396e-05)
(0 -0.00315558 1.13659e-05)
(0 -0.00314744 1.14901e-05)
(0 -0.00353133 1.30846e-05)
(0 -0.00313059 1.17203e-05)
(0 -0.0035119 1.33215e-05)
(0 -0.00266836 1.01865e-05)
(0 -0.00253949 9.79136e-06)
(0 -0.00253173 9.88633e-06)
(0 -0.0029222 1.15787e-05)
(0 -0.00230627 9.22786e-06)
(0 -0.00229859 9.32325e-06)
(0 -0.00343593 1.4183e-05)
(0 -0.00288384 1.20318e-05)
(0 -0.00303351 1.27863e-05)
(0 -0.00226735 9.62027e-06)
(0 -0.00235745 1.00998e-05)
(0 -0.00257268 1.11285e-05)
(0 -0.00244697 1.0663e-05)
(0 -0.00233216 1.02362e-05)
(0 -0.00314364 1.39216e-05)
(0 -0.00253582 1.12879e-05)
(0 -0.00279247 1.251e-05)
(0 -0.00251741 1.13404e-05)
(0 -0.00351115 1.59757e-05)
(0 -0.00218679 9.96387e-06)
(0 -0.00227325 1.04429e-05)
(0 -0.00260418 1.21136e-05)
(0 -0.00324259 1.52785e-05)
(0 -0.00258435 1.22677e-05)
(0 -0.00223862 1.07129e-05)
(0 -0.00222984 1.07847e-05)
(0 -0.0026887 1.31597e-05)
(0 -0.00221268 1.09174e-05)
(0 -0.0026684 1.32516e-05)
(0 -0.00210489 1.0466e-05)
(0 -0.00335651 1.66269e-05)
(0 -0.0021822 1.07328e-05)
(0 -0.00294445 1.42613e-05)
(0 -0.0033295 1.57855e-05)
(0 -0.00216756 1.00247e-05)
(0 -0.00276692 1.23111e-05)
(0 -0.00207471 8.6643e-06)
(0 -0.00249312 8.88045e-06)
(0 -0.00263655 5.14968e-06)
(0 -0.00220017 1.57435e-06)
(0 -0.00224929 3.14421e-05)
(0 -0.00373936 5.00431e-05)
(0 -0.00278449 2.54946e-05)
(0 -0.00282914 2.02117e-05)
(0 -0.00326435 2.16834e-05)
(0 -0.00213614 1.34033e-05)
(0 -0.00334474 2.25004e-05)
(0 -0.00247434 1.65135e-05)
(0 -0.00324998 2.21775e-05)
(0 -0.00240904 1.61835e-05)
(0 -0.002503 1.76086e-05)
(0 -0.00312872 2.30609e-05)
(0 -0.00272703 2.09512e-05)
(0 -0.00285856 2.27076e-05)
(0 -0.00250721 2.0495e-05)
(0 -0.00296595 2.46414e-05)
(0 -0.00258287 2.20991e-05)
(0 -0.00288583 2.54632e-05)
(0 -0.00237243 2.11843e-05)
(0 -0.00247584 2.25517e-05)
(0 -0.00207551 1.88516e-05)
(0 -0.00170485 1.58577e-05)
(0 -0.00223545 2.22046e-05)
(0 -0.0022005 2.27856e-05)
(0 -0.00194894 2.02623e-05)
(0 -0.00166694 1.79531e-05)
(0 -0.00221313 2.54145e-05)
(0 -0.00154063 1.81712e-05)
(0 -0.00172454 2.11909e-05)
(0 -0.00186718 2.44927e-05)
(0 -0.00182796 2.51191e-05)
(0 -0.00161798 2.30341e-05)
(0 -0.00184329 2.76585e-05)
(0 -0.00141012 2.12886e-05)
(0 -0.00137445 2.2282e-05)
(0 -0.00170762 2.95546e-05)
(0 -0.00199288 3.80805e-05)
(0 -0.00145264 2.88855e-05)
(0 -0.0012782 2.71785e-05)
(0 -0.0015937 3.74876e-05)
(0 -0.00118728 2.93037e-05)
(0 -0.0010887 2.90481e-05)
(0 -0.00159065 4.79584e-05)
(0 -0.00142233 4.84342e-05)
(0 -0.00119669 4.52632e-05)
)
;

boundaryField
{
    inlet
    {
        type            fixedValue;
        value           uniform (0 -0.0005 0);
    }
    outlet
    {
        type            fluxCorrectedVelocity;
        phi             phi.gas;
        rho             rho.gas;
        value           nonuniform List<vector> 10((0 -9.59554e-29 -8.75434e-10) (0 -3.72645e-09 -0.000851922) (0 -7.23042e-05 -2.58906e-06) (0 -0.000846425 8.13805e-07) (0 -0.000966805 2.54777e-06) (0 -0.00135764 5.17283e-06) (0 -0.00154011 8.40805e-06) (0 -0.00144809 1.06692e-05) (0 -0.00139166 7.14103e-06) (0 -0.00330924 2.24258e-06));
    }
    walls
    {
        type            fixedValue;
        value           uniform (0 0 0);
    }
}


// ************************************************************************* //
