/*--------------------------------*- C++ -*----------------------------------*\
| =========                 |                                                 |
| \\      /  F ield         | foam-extend: Open Source CFD                    |
|  \\    /   O peration     | Version:     5.0                                |
|   \\  /    A nd           | Web:         http://www.foam-extend.org         |
|    \\/     M anipulation  |                                                 |
\*---------------------------------------------------------------------------*/
FoamFile
{
    version     2.0;
    format      ascii;
    class       volVectorField;
    location    "10000";
    object      U.oil;
}
// * * * * * * * * * * * * * * * * * * * * * * * * * * * * * * * * * * * * * //

dimensions      [0 1 -1 0 0 0 0];

internalField   nonuniform List<vector> 
1000
(
(0 -0.000335507 -5.31966e-06)
(0 -0.000327423 -2.76371e-06)
(0 -0.000418023 -2.12448e-06)
(0 -0.000370903 -1.21703e-06)
(0 -0.000412285 -8.93902e-07)
(0 -0.000436483 -6.19551e-07)
(0 -0.000464472 -4.48536e-07)
(0 -0.000347799 -2.19024e-07)
(0 -0.000463241 -1.98839e-07)
(0 -0.000433967 -1.3461e-07)
(0 -0.000289151 -7.05427e-08)
(0 -0.000315367 6.17514e-09)
(0 -0.000289457 3.65033e-07)
(0 -0.00029061 7.88328e-07)
(0 -0.000304499 4.31853e-07)
(0 -0.000467745 1.81657e-07)
(0 -0.000412999 1.20276e-07)
(0 -0.000292695 7.89598e-08)
(0 -0.00035145 1.17278e-07)
(0 -0.000305815 1.12433e-07)
(0 -0.000293288 1.11064e-07)
(0 -0.000370773 1.46195e-07)
(0 -0.000391695 1.60828e-07)
(0 -0.000335984 1.2637e-07)
(0 -0.000392295 1.40831e-07)
(0 -0.000415677 1.42113e-07)
(0 -0.00037213 1.0231e-07)
(0 -0.00032149 4.09271e-08)
(0 -0.0003215 -3.90427e-08)
(0 -0.000471419 -1.99679e-07)
(0 -0.000470588 -6.12373e-07)
(0 -0.000319055 -1.17323e-06)
(0 -0.000366433 -1.83923e-06)
(0 -0.000364722 -1.21723e-06)
(0 -0.000406069 -7.90338e-07)
(0 -0.000312828 -3.98384e-07)
(0 -0.000286369 -2.82743e-07)
(0 -0.000298608 -2.5491e-07)
(0 -0.000429022 -3.52481e-07)
(0 -0.000343051 -2.93375e-07)
(0 -0.00028572 -2.62438e-07)
(0 -0.000342609 -3.57827e-07)
(0 -0.000285212 -3.49943e-07)
(0 -0.000402044 -6.03073e-07)
(0 -0.000296505 -5.75041e-07)
(0 -0.000308954 -8.03085e-07)
(0 -0.000450826 -1.6802e-06)
(0 -0.000335324 -1.94722e-06)
(0 -0.000300343 -3.09583e-06)
(0 -0.000376746 -8.20814e-06)
(0 -0.000280417 -8.90082e-06)
(0 -0.000273788 7.77882e-06)
(0 -0.000220307 6.92347e-06)
(0 -0.000216411 2.54643e-06)
(0 -0.000237521 1.20741e-06)
(0 -0.000180556 6.79055e-07)
(0 -0.000242927 6.04677e-07)
(0 -0.000175249 4.25942e-07)
(0 -0.000199409 4.38032e-08)
(0 -0.000205748 -6.27104e-08)
(0 -0.000200161 1.90658e-08)
(0 -0.000172916 1.00885e-07)
(0 -0.000125132 8.25929e-08)
(0 -0.000153191 -6.53662e-08)
(0 -0.000157093 -1.40043e-07)
(0 -0.000118759 -3.46741e-08)
(0 -0.000147166 -2.00045e-07)
(0 -0.000122042 -8.67299e-08)
(0 -0.000138084 -1.69923e-07)
(0 -0.000133923 -1.99885e-07)
(0 -0.000137571 -2.5018e-07)
(0 -0.000107435 -1.59651e-07)
(0 -0.000136644 -2.7015e-07)
(0 -0.000111173 -1.37565e-07)
(0 -0.000107261 -9.54755e-08)
(0 -0.000103401 -8.9797e-08)
(0 -0.000105234 -1.28974e-07)
(0 -0.000101313 -1.76527e-07)
(0 -0.000109929 -1.94486e-07)
(0 -7.99969e-05 -1.47948e-07)
(0 -8.44361e-05 -1.15639e-07)
(0 -8.05108e-05 -1.54211e-07)
(0 -7.65094e-05 -1.97013e-07)
(0 -8.66983e-05 -1.71215e-07)
(0 -7.76482e-05 -1.38933e-07)
(0 -5.89993e-05 -1.26592e-07)
(0 -7.31967e-05 -1.30031e-07)
(0 -4.71873e-05 -1.4048e-08)
(0 -4.76633e-05 -3.77101e-08)
(0 -4.14704e-05 -1.03587e-07)
(0 -5.628e-05 -2.11072e-07)
(0 -4.03947e-05 -6.93498e-08)
(0 -3.08586e-05 3.90989e-08)
(0 -3.33832e-05 2.67301e-09)
(0 -3.10231e-05 -3.49681e-08)
(0 -2.21159e-05 9.31768e-09)
(0 -1.66415e-05 5.38472e-08)
(0 -1.12627e-05 3.77628e-08)
(0 -1.09247e-05 -9.38901e-08)
(0 -4.36846e-06 -7.70851e-08)
(0 -0.000447909 -1.55645e-05)
(0 -0.000323733 -6.86387e-06)
(0 -0.00039268 -5.37218e-06)
(0 -0.000369769 -3.38056e-06)
(0 -0.000291444 -1.79422e-06)
(0 -0.000290555 -1.18129e-06)
(0 -0.000434991 -1.17903e-06)
(0 -0.000289571 -5.27002e-07)
(0 -0.000347163 -4.37367e-07)
(0 -0.000365166 -3.50144e-07)
(0 -0.000407827 -3.74048e-07)
(0 -0.000364311 -3.89276e-07)
(0 -0.000327881 -4.3013e-07)
(0 -0.000400086 -5.66903e-07)
(0 -0.000395933 -4.64515e-07)
(0 -0.00028968 -2.70563e-07)
(0 -0.000442532 -2.93263e-07)
(0 -0.000331226 -1.49596e-07)
(0 -0.000348277 -1.00051e-07)
(0 -0.000300527 -6.09368e-08)
(0 -0.000367038 -6.73021e-08)
(0 -0.000314369 -5.51829e-08)
(0 -0.000388038 -7.17979e-08)
(0 -0.000346911 -9.77159e-08)
(0 -0.000346611 -1.31029e-07)
(0 -0.000328956 -1.65182e-07)
(0 -0.000312935 -2.32281e-07)
(0 -0.000364637 -4.17607e-07)
(0 -0.000312128 -5.52107e-07)
(0 -0.000436349 -1.1337e-06)
(0 -0.000284204 -1.25009e-06)
(0 -0.000408798 -3.38857e-06)
(0 -0.00036453 -3.75203e-06)
(0 -0.000365499 -2.81245e-06)
(0 -0.000346436 -1.85518e-06)
(0 -0.000274135 -1.13047e-06)
(0 -0.000346031 -1.21894e-06)
(0 -0.000273771 -8.91625e-07)
(0 -0.00029849 -9.5449e-07)
(0 -0.000345402 -1.14426e-06)
(0 -0.000273279 -9.70806e-07)
(0 -0.000327687 -1.2789e-06)
(0 -0.00029762 -1.33078e-06)
(0 -0.000297263 -1.56021e-06)
(0 -0.000384008 -2.48397e-06)
(0 -0.000325617 -2.71278e-06)
(0 -0.000405629 -4.57152e-06)
(0 -0.000430709 -7.00977e-06)
(0 -0.000428595 -1.09878e-05)
(0 -0.000338302 -1.50379e-05)
(0 -0.000321997 -1.88861e-05)
(0 -0.000271143 3.99781e-06)
(0 -0.00038204 2.45962e-05)
(0 -0.000205104 9.7941e-06)
(0 -0.000197206 5.48894e-06)
(0 -0.000172732 3.60841e-06)
(0 -0.000188069 2.79536e-06)
(0 -0.000201249 2.21497e-06)
(0 -0.00014452 9.15267e-07)
(0 -0.000138604 3.57667e-07)
(0 -0.00016075 1.70473e-07)
(0 -0.000195408 2.3478e-08)
(0 -0.000178667 -8.33945e-08)
(0 -0.000154935 -2.91266e-07)
(0 -0.000135499 -4.24659e-07)
(0 -0.00018446 -5.70112e-07)
(0 -0.000116107 -4.01503e-07)
(0 -0.000162042 -5.75972e-07)
(0 -0.000148129 -6.10054e-07)
(0 -0.000143799 -6.68918e-07)
(0 -0.000118207 -5.40797e-07)
(0 -0.000108643 -3.81663e-07)
(0 -9.13296e-05 -3.6053e-07)
(0 -0.000105523 -4.92084e-07)
(0 -0.00011989 -5.65507e-07)
(0 -0.000131509 -6.64071e-07)
(0 -0.000127294 -6.41045e-07)
(0 -9.17319e-05 -3.9792e-07)
(0 -0.000103905 -5.46272e-07)
(0 -6.99518e-05 -3.62323e-07)
(0 -0.000100543 -6.02757e-07)
(0 -8.54244e-05 -5.33654e-07)
(0 -6.0382e-05 -3.58803e-07)
(0 -8.62236e-05 -6.27365e-07)
(0 -8.21696e-05 -5.08511e-07)
(0 -5.11012e-05 -2.6931e-07)
(0 -6.03829e-05 -3.90626e-07)
(0 -5.95495e-05 -3.03499e-07)
(0 -6.27282e-05 -2.87147e-07)
(0 -4.17994e-05 -1.9633e-07)
(0 -3.6129e-05 -1.49046e-07)
(0 -3.06466e-05 -1.25984e-07)
(0 -3.86113e-05 -2.02591e-07)
(0 -3.91349e-05 -2.89367e-07)
(0 -2.82555e-05 -2.22454e-07)
(0 -2.09179e-05 -1.70612e-07)
(0 -1.95527e-05 -2.19317e-07)
(0 -1.56835e-05 -1.60811e-07)
(0 -1.14931e-05 -3.88305e-07)
(0 -4.35974e-06 -2.35103e-07)
(0 -0.000320945 -1.37707e-05)
(0 -0.000316256 -9.54831e-06)
(0 -0.000437345 -9.42398e-06)
(0 -0.000382639 -5.90754e-06)
(0 -0.000269357 -3.00173e-06)
(0 -0.000306529 -2.49731e-06)
(0 -0.000305471 -1.84171e-06)
(0 -0.00031976 -1.49032e-06)
(0 -0.000318866 -1.20625e-06)
(0 -0.000374181 -1.25709e-06)
(0 -0.000288401 -9.8255e-07)
(0 -0.00026373 -1.12156e-06)
(0 -0.000371982 -2.51665e-06)
(0 -0.000333377 -3.04503e-06)
(0 -0.000396584 -2.64992e-06)
(0 -0.000352446 -1.54506e-06)
(0 -0.000333591 -1.16614e-06)
(0 -0.000351816 -1.05035e-06)
(0 -0.000333046 -9.17816e-07)
(0 -0.000301128 -7.97334e-07)
(0 -0.000351095 -9.15168e-07)
(0 -0.000315797 -8.3587e-07)
(0 -0.000300583 -8.14682e-07)
(0 -0.000300409 -8.51572e-07)
(0 -0.000262708 -7.96221e-07)
(0 -0.000273964 -8.94043e-07)
(0 -0.000370403 -1.33815e-06)
(0 -0.000331184 -1.3599e-06)
(0 -0.000419223 -2.00008e-06)
(0 -0.00036971 -2.11245e-06)
(0 -0.000261864 -1.86347e-06)
(0 -0.000299538 -2.6748e-06)
(0 -0.000300087 -2.94126e-06)
(0 -0.000300595 -2.70834e-06)
(0 -0.000274682 -2.15246e-06)
(0 -0.000394875 -2.76026e-06)
(0 -0.000350899 -2.27699e-06)
(0 -0.000300665 -1.8939e-06)
(0 -0.000262998 -1.65502e-06)
(0 -0.000350522 -2.25594e-06)
(0 -0.000420403 -2.86547e-06)
(0 -0.000286497 -2.11616e-06)
(0 -0.000419898 -3.45094e-06)
(0 -0.000262239 -2.47227e-06)
(0 -0.000285805 -3.19339e-06)
(0 -0.000369361 -5.06598e-06)
(0 -0.000348286 -6.09616e-06)
(0 -0.000298134 -6.92743e-06)
(0 -0.00029814 -9.53502e-06)
(0 -0.000349114 -1.55659e-05)
(0 -0.000372887 -2.147e-05)
(0 -0.000388405 -1.29831e-05)
(0 -0.000304018 1.8976e-05)
(0 -0.000245527 2.02131e-05)
(0 -0.000192167 1.08717e-05)
(0 -0.000180544 7.61101e-06)
(0 -0.000235082 6.19304e-06)
(0 -0.000241721 4.45221e-06)
(0 -0.000233881 2.72595e-06)
(0 -0.000168842 1.09186e-06)
(0 -0.00020456 4.10513e-07)
(0 -0.000212322 -1.9204e-07)
(0 -0.000171736 -2.14629e-07)
(0 -0.000176747 -3.49879e-07)
(0 -0.000132064 -3.69231e-07)
(0 -0.00012193 -4.39671e-07)
(0 -0.000151163 -6.27355e-07)
(0 -0.000138965 -6.24742e-07)
(0 -0.000142531 -6.57449e-07)
(0 -0.00011282 -4.73065e-07)
(0 -9.96855e-05 -3.1355e-07)
(0 -0.000121948 -3.59105e-07)
(0 -0.000140845 -4.39877e-07)
(0 -9.04495e-05 -3.33089e-07)
(0 -9.96876e-05 -5.17945e-07)
(0 -8.75337e-05 -4.63661e-07)
(0 -8.79094e-05 -5.05282e-07)
(0 -0.00012497 -5.58193e-07)
(0 -9.02802e-05 -4.16802e-07)
(0 -7.85609e-05 -3.29238e-07)
(0 -6.85518e-05 -3.769e-07)
(0 -6.49821e-05 -4.27272e-07)
(0 -8.27033e-05 -5.43455e-07)
(0 -5.8519e-05 -4.49638e-07)
(0 -6.3119e-05 -4.66712e-07)
(0 -6.58773e-05 -4.45951e-07)
(0 -5.31843e-05 -3.95707e-07)
(0 -4.50102e-05 -3.53775e-07)
(0 -4.74782e-05 -3.35472e-07)
(0 -3.76638e-05 -1.78399e-07)
(0 -5.56724e-05 -2.38106e-07)
(0 -4.49805e-05 -2.91367e-07)
(0 -3.60964e-05 -4.67274e-07)
(0 -3.38393e-05 -4.37036e-07)
(0 -3.1547e-05 -3.20427e-07)
(0 -2.55522e-05 -2.65878e-07)
(0 -1.58753e-05 -1.45207e-07)
(0 -1.79789e-05 -2.51321e-07)
(0 -9.97794e-06 -1.65685e-07)
(0 -4.10742e-06 -1.26702e-07)
(0 -0.000344019 -1.80106e-05)
(0 -0.00034469 -1.29407e-05)
(0 -0.000257875 -7.12187e-06)
(0 -0.000280404 -5.83836e-06)
(0 -0.000341752 -5.47103e-06)
(0 -0.000340954 -4.32213e-06)
(0 -0.000322365 -3.30624e-06)
(0 -0.000277916 -2.39085e-06)
(0 -0.000277493 -2.09345e-06)
(0 -0.000320894 -2.25127e-06)
(0 -0.000380664 -2.64292e-06)
(0 -0.00033815 -2.5204e-06)
(0 -0.000289901 -2.46701e-06)
(0 -0.000290259 -2.668e-06)
(0 -0.000321239 -2.67095e-06)
(0 -0.000381674 -2.70983e-06)
(0 -0.000305342 -1.91388e-06)
(0 -0.000359154 -2.06282e-06)
(0 -0.000359062 -1.96138e-06)
(0 -0.000381396 -2.03251e-06)
(0 -0.000265272 -1.39904e-06)
(0 -0.00035882 -1.89947e-06)
(0 -0.000290414 -1.55669e-06)
(0 -0.000254082 -1.39106e-06)
(0 -0.000338711 -1.92039e-06)
(0 -0.000290269 -1.71347e-06)
(0 -0.000358493 -2.23044e-06)
(0 -0.000406199 -2.71603e-06)
(0 -0.00027693 -2.0204e-06)
(0 -0.000276959 -2.23721e-06)
(0 -0.000358552 -3.23682e-06)
(0 -0.000406682 -4.06712e-06)
(0 -0.000277637 -2.91316e-06)
(0 -0.000407689 -4.19245e-06)
(0 -0.000360021 -3.51246e-06)
(0 -0.000340176 -3.153e-06)
(0 -0.000306231 -2.74203e-06)
(0 -0.00038282 -3.38165e-06)
(0 -0.000408337 -3.62943e-06)
(0 -0.000266326 -2.41371e-06)
(0 -0.000291711 -2.76335e-06)
(0 -0.000382856 -3.88333e-06)
(0 -0.000278436 -3.09118e-06)
(0 -0.000266328 -3.34023e-06)
(0 -0.00038279 -5.54939e-06)
(0 -0.000266265 -4.58673e-06)
(0 -0.000360265 -7.59647e-06)
(0 -0.000306442 -8.10523e-06)
(0 -0.000307115 -1.03212e-05)
(0 -0.000257242 -1.08853e-05)
(0 -0.000415415 -2.1127e-05)
(0 -0.000285877 -1.41225e-05)
(0 -0.000300444 6.16485e-06)
(0 -0.00023708 1.91181e-05)
(0 -0.00020297 1.49572e-05)
(0 -0.000245818 1.24162e-05)
(0 -0.000175381 5.86825e-06)
(0 -0.000245515 4.97963e-06)
(0 -0.000196073 2.18048e-06)
(0 -0.000199752 1.40458e-06)
(0 -0.000192881 3.31617e-07)
(0 -0.000150259 -1.13391e-07)
(0 -0.000204052 -4.24853e-07)
(0 -0.000185798 -4.43883e-07)
(0 -0.000151451 -3.32636e-07)
(0 -0.000174666 -5.50402e-07)
(0 -0.000117171 -4.95944e-07)
(0 -0.000145035 -6.20428e-07)
(0 -0.000114622 -3.6767e-07)
(0 -0.000115909 -3.5782e-07)
(0 -0.00015757 -5.10271e-07)
(0 -0.000143442 -4.6699e-07)
(0 -0.000123474 -3.84388e-07)
(0 -0.00014394 -2.51571e-07)
(0 -9.03047e-05 -1.72389e-07)
(0 -0.000111437 -2.65323e-07)
(0 -8.00722e-05 -1.93608e-07)
(0 -0.000109042 -4.39143e-07)
(0 -9.9253e-05 -2.25308e-07)
(0 -9.02755e-05 -1.86173e-07)
(0 -0.000103201 -2.87323e-07)
(0 -7.50182e-05 -2.63825e-07)
(0 -6.79758e-05 -2.8403e-07)
(0 -6.75728e-05 -1.6322e-07)
(0 -6.73509e-05 -1.83885e-07)
(0 -5.26475e-05 -1.71345e-07)
(0 -5.37442e-05 -1.46495e-07)
(0 -4.55796e-05 -1.79297e-07)
(0 -4.37424e-05 -1.67004e-07)
(0 -4.39284e-05 -2.03442e-07)
(0 -5.33571e-05 -4.97974e-07)
(0 -5.27034e-05 -5.05621e-07)
(0 -2.91342e-05 -2.63663e-07)
(0 -2.76185e-05 -2.39548e-07)
(0 -2.93332e-05 -2.64694e-07)
(0 -1.97503e-05 -1.13458e-07)
(0 -2.38527e-05 -8.28529e-08)
(0 -1.535e-05 -5.36788e-08)
(0 -1.14251e-05 1.48543e-07)
(0 -4.06358e-06 1.40921e-07)
(0 -0.000296273 -1.52192e-05)
(0 -0.000296831 -1.20759e-05)
(0 -0.00025822 -8.15084e-06)
(0 -0.000282702 -6.98263e-06)
(0 -0.000282529 -5.55823e-06)
(0 -0.000296473 -4.75367e-06)
(0 -0.000329226 -4.41732e-06)
(0 -0.000296153 -3.43694e-06)
(0 -0.000257424 -2.68053e-06)
(0 -0.000328839 -3.1995e-06)
(0 -0.000269034 -2.54838e-06)
(0 -0.000348232 -3.34039e-06)
(0 -0.000394895 -3.91455e-06)
(0 -0.000370586 -3.72627e-06)
(0 -0.000312422 -3.00551e-06)
(0 -0.0003713 -3.32417e-06)
(0 -0.00031283 -2.62689e-06)
(0 -0.000247757 -1.97179e-06)
(0 -0.000270369 -2.06939e-06)
(0 -0.000330529 -2.46717e-06)
(0 -0.000350047 -2.58475e-06)
(0 -0.000372 -2.73506e-06)
(0 -0.000350188 -2.59311e-06)
(0 -0.000283563 -2.12778e-06)
(0 -0.000372261 -2.83885e-06)
(0 -0.000313554 -2.45748e-06)
(0 -0.000283773 -2.2973e-06)
(0 -0.000298056 -2.52601e-06)
(0 -0.000350781 -3.14938e-06)
(0 -0.000372883 -3.56437e-06)
(0 -0.00025959 -2.64178e-06)
(0 -0.000373515 -4.0117e-06)
(0 -0.000299154 -3.31499e-06)
(0 -0.000299504 -3.31042e-06)
(0 -0.000249852 -2.70594e-06)
(0 -0.00040009 -4.23028e-06)
(0 -0.000375325 -3.90114e-06)
(0 -0.000333818 -3.44393e-06)
(0 -0.000400788 -4.15982e-06)
(0 -0.000273426 -2.90263e-06)
(0 -0.000334391 -3.67939e-06)
(0 -0.000261871 -3.04632e-06)
(0 -0.000251145 -3.16721e-06)
(0 -0.000317476 -4.4316e-06)
(0 -0.00033539 -5.3042e-06)
(0 -0.000318063 -5.85508e-06)
(0 -0.000318514 -6.9566e-06)
(0 -0.000275677 -7.26959e-06)
(0 -0.000357949 -1.14419e-05)
(0 -0.000407661 -1.56254e-05)
(0 -0.000292977 -1.30205e-05)
(0 -0.000363055 -1.76721e-05)
(0 -0.000269984 -8.13441e-06)
(0 -0.000346831 2.2426e-05)
(0 -0.000278586 2.47657e-05)
(0 -0.000209216 1.33654e-05)
(0 -0.00025282 9.79818e-06)
(0 -0.00023873 5.16447e-06)
(0 -0.000163421 2.08862e-06)
(0 -0.000229935 1.30722e-06)
(0 -0.000174217 1.24075e-07)
(0 -0.000199671 -4.18592e-07)
(0 -0.000153911 -5.58388e-07)
(0 -0.000165401 -6.55331e-07)
(0 -0.000180708 -7.23831e-07)
(0 -0.000139917 -5.71112e-07)
(0 -0.00012275 -4.77614e-07)
(0 -0.000108305 -4.49493e-07)
(0 -0.000168568 -5.35123e-07)
(0 -0.000129123 -4.3954e-07)
(0 -0.000102858 -4.47792e-07)
(0 -0.000108775 -3.73299e-07)
(0 -0.000100087 -3.06282e-07)
(0 -0.000106252 -2.44002e-07)
(0 -0.000120962 -2.29255e-07)
(0 -9.41704e-05 -2.45063e-07)
(0 -0.000127564 -3.11151e-07)
(0 -7.95715e-05 -3.64242e-07)
(0 -0.000117657 -4.72659e-07)
(0 -0.000106295 -4.46548e-07)
(0 -7.72972e-05 -2.78954e-07)
(0 -6.99518e-05 -2.88653e-07)
(0 -6.30086e-05 -2.61196e-07)
(0 -8.61012e-05 -3.45532e-07)
(0 -8.75245e-05 -2.91759e-07)
(0 -6.88836e-05 -1.60576e-07)
(0 -7.83021e-05 -2.32981e-07)
(0 -4.956e-05 -1.28634e-07)
(0 -6.37921e-05 -2.01573e-07)
(0 -5.97955e-05 -1.98704e-07)
(0 -3.98533e-05 -1.88078e-07)
(0 -3.27701e-05 -1.74751e-07)
(0 -3.01617e-05 -1.1527e-07)
(0 -3.21576e-05 -2.32863e-07)
(0 -2.48802e-05 -2.46479e-07)
(0 -2.4482e-05 -1.76261e-07)
(0 -1.57787e-05 -8.20768e-08)
(0 -1.18449e-05 2.05728e-08)
(0 -9.2953e-06 1.58268e-07)
(0 -4.60021e-06 2.81623e-07)
(0 -0.000358856 -1.84625e-05)
(0 -0.000319753 -1.32075e-05)
(0 -0.000262191 -8.58679e-06)
(0 -0.000262632 -6.85996e-06)
(0 -0.000321389 -6.81105e-06)
(0 -0.00030475 -5.36436e-06)
(0 -0.000251927 -3.78386e-06)
(0 -0.00034103 -4.50651e-06)
(0 -0.000263655 -3.16504e-06)
(0 -0.000252327 -2.83571e-06)
(0 -0.00026396 -2.86163e-06)
(0 -0.000363208 -3.88372e-06)
(0 -0.000276992 -2.95474e-06)
(0 -0.000342546 -3.63019e-06)
(0 -0.000265007 -2.73588e-06)
(0 -0.000265295 -2.63138e-06)
(0 -0.000365094 -3.47849e-06)
(0 -0.000389709 -3.58418e-06)
(0 -0.000307872 -2.74896e-06)
(0 -0.000266064 -2.32194e-06)
(0 -0.000244053 -2.09958e-06)
(0 -0.000279093 -2.3809e-06)
(0 -0.000308657 -2.6328e-06)
(0 -0.000325999 -2.80216e-06)
(0 -0.000293582 -2.54596e-06)
(0 -0.000367199 -3.24237e-06)
(0 -0.000267232 -2.41909e-06)
(0 -0.000294165 -2.74735e-06)
(0 -0.000327096 -3.16825e-06)
(0 -0.000346627 -3.49999e-06)
(0 -0.000346965 -3.65269e-06)
(0 -0.000310792 -3.38053e-06)
(0 -0.000311176 -3.45904e-06)
(0 -0.00032887 -3.67294e-06)
(0 -0.0002694 -2.98859e-06)
(0 -0.00025798 -2.82383e-06)
(0 -0.000282843 -3.06385e-06)
(0 -0.000330305 -3.56255e-06)
(0 -0.000313225 -3.39399e-06)
(0 -0.000330959 -3.65216e-06)
(0 -0.000271083 -3.08196e-06)
(0 -0.000248795 -2.9682e-06)
(0 -0.000351687 -4.48524e-06)
(0 -0.000260315 -3.61997e-06)
(0 -0.000249886 -3.87645e-06)
(0 -0.000375553 -6.65278e-06)
(0 -0.000273798 -5.63344e-06)
(0 -0.000402841 -9.7495e-06)
(0 -0.000337107 -9.61602e-06)
(0 -0.000290542 -9.70654e-06)
(0 -0.000267131 -1.0326e-05)
(0 -0.00025829 -1.15443e-05)
(0 -0.000347228 -1.68784e-05)
(0 -0.00035059 4.79108e-06)
(0 -0.000271207 2.35454e-05)
(0 -0.000329584 2.31853e-05)
(0 -0.000219361 9.07285e-06)
(0 -0.000199862 5.2533e-06)
(0 -0.000208207 3.0529e-06)
(0 -0.000209749 1.10052e-06)
(0 -0.000189435 2.03859e-07)
(0 -0.000148008 -1.06522e-07)
(0 -0.000156548 -2.01035e-07)
(0 -0.000143807 -1.89112e-07)
(0 -0.000126529 -3.07582e-07)
(0 -0.000127713 -2.16631e-07)
(0 -0.000112785 -2.60931e-07)
(0 -0.000108576 -2.34974e-07)
(0 -0.000140379 -4.85028e-07)
(0 -0.000136254 -4.23469e-07)
(0 -9.83813e-05 -2.38312e-07)
(0 -0.000126983 -2.8716e-07)
(0 -0.000105069 -1.94072e-07)
(0 -0.000142886 -3.31636e-07)
(0 -0.000109123 -2.56052e-07)
(0 -0.000111297 -3.48049e-07)
(0 -0.000121324 -4.05422e-07)
(0 -8.46744e-05 -3.31638e-07)
(0 -0.000105669 -5.06377e-07)
(0 -7.46611e-05 -2.76217e-07)
(0 -0.000110445 -3.78511e-07)
(0 -6.56375e-05 -1.77672e-07)
(0 -6.20448e-05 -2.1516e-07)
(0 -6.10638e-05 -3.89851e-07)
(0 -6.63806e-05 -4.47182e-07)
(0 -6.98143e-05 -4.30755e-07)
(0 -5.60772e-05 -3.16447e-07)
(0 -5.21958e-05 -1.8251e-07)
(0 -4.59594e-05 -2.01973e-07)
(0 -4.91364e-05 -1.65356e-07)
(0 -4.77743e-05 -1.31369e-08)
(0 -4.11668e-05 -7.62309e-08)
(0 -3.92027e-05 -1.93149e-07)
(0 -2.95492e-05 -1.96666e-07)
(0 -2.28572e-05 -1.56108e-07)
(0 -1.76214e-05 -1.18631e-07)
(0 -1.74023e-05 -7.78466e-08)
(0 -1.25116e-05 -1.07801e-07)
(0 -1.02364e-05 -2.20857e-07)
(0 -4.52939e-06 -2.1224e-07)
(0 -0.000373333 -1.88132e-05)
(0 -0.000244469 -9.66415e-06)
(0 -0.000313701 -9.79421e-06)
(0 -0.000236135 -5.91696e-06)
(0 -0.000270657 -5.56716e-06)
(0 -0.000379783 -6.58008e-06)
(0 -0.000300372 -4.50591e-06)
(0 -0.000300817 -4.01979e-06)
(0 -0.000336631 -4.12353e-06)
(0 -0.000260427 -2.99718e-06)
(0 -0.000273142 -3.01752e-06)
(0 -0.000382841 -4.12342e-06)
(0 -0.000261354 -2.77511e-06)
(0 -0.000319851 -3.34546e-06)
(0 -0.000250652 -2.57027e-06)
(0 -0.000360759 -3.6e-06)
(0 -0.000321032 -3.10703e-06)
(0 -0.000251508 -2.36771e-06)
(0 -0.000275735 -2.53869e-06)
(0 -0.000289796 -2.62092e-06)
(0 -0.000322289 -2.87369e-06)
(0 -0.000305602 -2.69331e-06)
(0 -0.00027675 -2.42722e-06)
(0 -0.000387792 -3.40686e-06)
(0 -0.000277243 -2.45509e-06)
(0 -0.000242813 -2.1762e-06)
(0 -0.000253613 -2.31653e-06)
(0 -0.000324375 -3.02873e-06)
(0 -0.00026567 -2.5455e-06)
(0 -0.00036569 -3.60553e-06)
(0 -0.000325434 -3.30365e-06)
(0 -0.000293258 -3.04996e-06)
(0 -0.000326268 -3.44927e-06)
(0 -0.000326696 -3.47885e-06)
(0 -0.000256008 -2.72719e-06)
(0 -0.000294778 -3.12309e-06)
(0 -0.000281082 -2.95642e-06)
(0 -0.000268632 -2.81203e-06)
(0 -0.000281773 -2.95764e-06)
(0 -0.00025761 -2.73752e-06)
(0 -0.000257978 -2.80709e-06)
(0 -0.00028299 -3.1967e-06)
(0 -0.000270595 -3.22752e-06)
(0 -0.000259338 -3.33359e-06)
(0 -0.000249102 -3.51602e-06)
(0 -0.000352601 -5.5795e-06)
(0 -0.000286347 -5.16815e-06)
(0 -0.000377291 -7.84194e-06)
(0 -0.000319244 -7.66452e-06)
(0 -0.000321141 -8.86161e-06)
(0 -0.000361546 -1.13338e-05)
(0 -0.000344653 -1.20354e-05)
(0 -0.000262004 -9.67182e-06)
(0 -0.000332908 -4.97992e-06)
(0 -0.000405827 2.22465e-05)
(0 -0.000249518 1.53374e-05)
(0 -0.000223923 1.09758e-05)
(0 -0.000248058 8.19104e-06)
(0 -0.000194553 3.88702e-06)
(0 -0.000164987 1.67972e-06)
(0 -0.000142172 6.6102e-07)
(0 -0.000147626 5.18064e-07)
(0 -0.00014143 2.09361e-07)
(0 -0.00020124 2.30548e-07)
(0 -0.00012648 1.04541e-07)
(0 -0.000165999 4.00143e-08)
(0 -0.00011331 -6.27383e-08)
(0 -0.000138553 -1.2573e-07)
(0 -0.000121276 -3.04471e-07)
(0 -0.000111783 -2.73886e-07)
(0 -0.000113114 -1.34017e-07)
(0 -0.000109276 -1.1424e-07)
(0 -0.000123539 -1.3639e-07)
(0 -0.000113222 -2.7468e-07)
(0 -0.000139345 -2.43452e-07)
(0 -8.73602e-05 -1.79454e-07)
(0 -0.000129764 -4.0109e-07)
(0 -8.49162e-05 -1.95812e-07)
(0 -8.12097e-05 -2.16964e-07)
(0 -0.000101179 -9.64423e-08)
(0 -7.83065e-05 -1.85773e-07)
(0 -9.27496e-05 -1.89914e-08)
(0 -0.000101104 -1.23585e-07)
(0 -6.24821e-05 -5.23515e-08)
(0 -5.89616e-05 -6.97848e-08)
(0 -5.30023e-05 -1.0814e-07)
(0 -4.9432e-05 -6.48695e-09)
(0 -5.0238e-05 2.43685e-08)
(0 -4.43855e-05 2.94409e-08)
(0 -4.06199e-05 -1.63315e-08)
(0 -5.422e-05 -4.23895e-08)
(0 -4.42693e-05 -1.21667e-07)
(0 -3.07954e-05 -8.15452e-08)
(0 -2.81215e-05 5.04401e-09)
(0 -2.39147e-05 -3.74729e-08)
(0 -2.19071e-05 9.4043e-09)
(0 -1.86626e-05 -2.82335e-08)
(0 -1.42249e-05 -2.22837e-08)
(0 -9.60212e-06 -9.54146e-08)
(0 -4.09716e-06 -8.8263e-08)
(0 -0.000319704 -1.48138e-05)
(0 -0.000365281 -1.26852e-05)
(0 -0.000324661 -8.76142e-06)
(0 -0.000326584 -7.08846e-06)
(0 -0.000278879 -5.03118e-06)
(0 -0.00023323 -3.59704e-06)
(0 -0.000350841 -4.76048e-06)
(0 -0.000281325 -3.44741e-06)
(0 -0.000234895 -2.66539e-06)
(0 -0.000282364 -3.02623e-06)
(0 -0.000269358 -2.77073e-06)
(0 -0.000314752 -3.14311e-06)
(0 -0.000354662 -3.47343e-06)
(0 -0.000355228 -3.41831e-06)
(0 -0.000271075 -2.56689e-06)
(0 -0.000356319 -3.30424e-06)
(0 -0.000356819 -3.2364e-06)
(0 -0.000285839 -2.53772e-06)
(0 -0.00038161 -3.31856e-06)
(0 -0.000358202 -3.06578e-06)
(0 -0.00038254 -3.22273e-06)
(0 -0.00030237 -2.51129e-06)
(0 -0.000338354 -2.79167e-06)
(0 -0.000274236 -2.26095e-06)
(0 -0.000384388 -3.1919e-06)
(0 -0.000274892 -2.30671e-06)
(0 -0.000288987 -2.45587e-06)
(0 -0.000361681 -3.12173e-06)
(0 -0.000275918 -2.43013e-06)
(0 -0.000241747 -2.17154e-06)
(0 -0.000242077 -2.22588e-06)
(0 -0.000342237 -3.20705e-06)
(0 -0.000388431 -3.69102e-06)
(0 -0.000343231 -3.29247e-06)
(0 -0.000278251 -2.68177e-06)
(0 -0.000265976 -2.56119e-06)
(0 -0.000366228 -3.50724e-06)
(0 -0.000308846 -2.93966e-06)
(0 -0.000293847 -2.79734e-06)
(0 -0.000327016 -3.13668e-06)
(0 -0.000294823 -2.869e-06)
(0 -0.000246164 -2.45799e-06)
(0 -0.00034827 -3.62295e-06)
(0 -0.000395649 -4.36431e-06)
(0 -0.000247972 -2.95119e-06)
(0 -0.00031424 -4.10915e-06)
(0 -0.000260566 -3.81157e-06)
(0 -0.000334423 -5.51856e-06)
(0 -0.000263096 -4.91662e-06)
(0 -0.000338264 -7.14439e-06)
(0 -0.000266603 -6.30897e-06)
(0 -0.000363418 -9.46079e-06)
(0 -0.000326965 -8.96504e-06)
(0 -0.000293162 -7.07869e-06)
(0 -0.000306299 5.57156e-06)
(0 -0.000231562 1.60743e-05)
(0 -0.000221567 1.15768e-05)
(0 -0.0002456 7.31376e-06)
(0 -0.000258774 4.56893e-06)
(0 -0.000191243 1.92517e-06)
(0 -0.000141824 5.56653e-07)
(0 -0.000191335 2.27044e-07)
(0 -0.000156115 -4.74957e-08)
(0 -0.000177519 -1.8328e-07)
(0 -0.000172048 -4.40796e-08)
(0 -0.000177561 -2.39633e-07)
(0 -0.000119112 -5.3452e-08)
(0 -0.000147447 -2.83991e-07)
(0 -0.00011132 -2.18175e-07)
(0 -0.000102625 -2.16856e-07)
(0 -0.000107862 -1.56067e-07)
(0 -0.000153601 -3.74044e-07)
(0 -0.000149333 -4.09097e-07)
(0 -0.0001029 -2.77858e-07)
(0 -0.000123022 -3.51111e-07)
(0 -0.000119115 -2.14678e-07)
(0 -8.44743e-05 -2.64001e-07)
(0 -8.45357e-05 -1.98551e-07)
(0 -7.70956e-05 -2.09631e-07)
(0 -0.000113911 -3.27978e-07)
(0 -7.06501e-05 -2.34545e-07)
(0 -9.72214e-05 -3.73537e-07)
(0 -6.1117e-05 -2.3289e-07)
(0 -7.29481e-05 -9.58276e-08)
(0 -8.22319e-05 -1.14445e-07)
(0 -5.3346e-05 -2.87668e-08)
(0 -6.37853e-05 -2.98198e-08)
(0 -5.9529e-05 -5.1588e-08)
(0 -5.86917e-05 -2.32885e-08)
(0 -5.7921e-05 -1.79895e-07)
(0 -5.74793e-05 -1.60023e-07)
(0 -3.52881e-05 -1.24532e-07)
(0 -2.95663e-05 -6.88057e-08)
(0 -3.76316e-05 -2.10542e-07)
(0 -2.19083e-05 -1.44987e-07)
(0 -2.16289e-05 -1.87767e-07)
(0 -1.91211e-05 -1.84862e-07)
(0 -1.64255e-05 -6.16624e-08)
(0 -1.11247e-05 -1.17688e-07)
(0 -4.41521e-06 -2.04258e-08)
(0 -0.000228761 -8.35644e-06)
(0 -0.000222405 -5.83559e-06)
(0 -0.00034512 -6.98795e-06)
(0 -0.000307254 -5.04081e-06)
(0 -0.000219097 -3.03707e-06)
(0 -0.000264283 -3.20553e-06)
(0 -0.000241257 -2.62028e-06)
(0 -0.000231562 -2.30367e-06)
(0 -0.000232243 -2.17642e-06)
(0 -0.000223147 -1.98692e-06)
(0 -0.000255653 -2.20603e-06)
(0 -0.000316568 -2.66231e-06)
(0 -0.000283914 -2.33405e-06)
(0 -0.000360472 -2.92329e-06)
(0 -0.000225804 -1.80234e-06)
(0 -0.000285848 -2.26629e-06)
(0 -0.00034016 -2.65848e-06)
(0 -0.000320805 -2.45968e-06)
(0 -0.000341543 -2.55967e-06)
(0 -0.000248878 -1.84564e-06)
(0 -0.000228567 -1.66307e-06)
(0 -0.000238963 -1.69389e-06)
(0 -0.000305938 -2.15245e-06)
(0 -0.000290395 -2.03804e-06)
(0 -0.000368531 -2.60835e-06)
(0 -0.000263725 -1.87505e-06)
(0 -0.000292031 -2.08801e-06)
(0 -0.000370613 -2.68176e-06)
(0 -0.000309435 -2.27272e-06)
(0 -0.000372055 -2.76282e-06)
(0 -0.000294311 -2.23293e-06)
(0 -0.000329592 -2.54174e-06)
(0 -0.000374304 -2.93199e-06)
(0 -0.000255722 -2.01517e-06)
(0 -0.000352326 -2.83019e-06)
(0 -0.000282413 -2.27539e-06)
(0 -0.000235806 -1.88437e-06)
(0 -0.000246572 -1.95057e-06)
(0 -0.000236822 -1.87982e-06)
(0 -0.000379788 -3.02866e-06)
(0 -0.000271951 -2.17439e-06)
(0 -0.000357907 -2.88071e-06)
(0 -0.00033786 -2.77686e-06)
(0 -0.00038417 -3.26705e-06)
(0 -0.000289206 -2.59581e-06)
(0 -0.000252558 -2.43231e-06)
(0 -0.000389118 -4.08102e-06)
(0 -0.000366804 -4.24621e-06)
(0 -0.000246098 -3.16107e-06)
(0 -0.000330541 -4.71084e-06)
(0 -0.000399946 -6.35751e-06)
(0 -0.000356147 -6.37917e-06)
(0 -0.000265814 -5.66032e-06)
(0 -0.000342772 -9.98869e-06)
(0 -0.000335007 -5.78995e-06)
(0 -0.000336389 1.74982e-05)
(0 -0.000243713 1.01972e-05)
(0 -0.000222928 3.73798e-06)
(0 -0.000200983 1.25372e-06)
(0 -0.000207964 6.06892e-07)
(0 -0.000152306 -1.3782e-07)
(0 -0.000144186 -2.07568e-07)
(0 -0.000137767 -3.5301e-07)
(0 -0.000152656 -4.21532e-07)
(0 -0.000185268 -6.24766e-07)
(0 -0.000136451 -4.25068e-07)
(0 -0.000174056 -3.10375e-07)
(0 -0.000116943 -2.99008e-07)
(0 -0.000123792 -2.74306e-07)
(0 -0.000104317 -2.69793e-07)
(0 -0.000151986 -4.4134e-07)
(0 -0.00010206 -4.31702e-07)
(0 -0.000102877 -4.47002e-07)
(0 -0.000109226 -4.86229e-07)
(0 -0.000105309 -5.38047e-07)
(0 -0.000136063 -7.50372e-07)
(0 -0.000109372 -5.90599e-07)
(0 -9.9653e-05 -4.52962e-07)
(0 -8.63539e-05 -4.18411e-07)
(0 -0.000109218 -6.9311e-07)
(0 -8.36421e-05 -5.03593e-07)
(0 -7.23625e-05 -4.42759e-07)
(0 -6.2633e-05 -3.93639e-07)
(0 -7.511e-05 -4.64125e-07)
(0 -5.83893e-05 -3.43808e-07)
(0 -6.31925e-05 -3.09931e-07)
(0 -5.9286e-05 -3.71244e-07)
(0 -5.25855e-05 -3.27136e-07)
(0 -6.93104e-05 -5.27631e-07)
(0 -3.96145e-05 -2.92381e-07)
(0 -5.90194e-05 -3.00348e-07)
(0 -3.83776e-05 -9.64419e-08)
(0 -4.06238e-05 -1.95698e-07)
(0 -2.79187e-05 -2.16272e-07)
(0 -2.38384e-05 -1.14193e-07)
(0 -2.06855e-05 -2.24244e-07)
(0 -1.54827e-05 -1.9156e-07)
(0 -1.62031e-05 -1.06294e-07)
(0 -8.67655e-06 -7.58875e-08)
(0 -4.20166e-06 -6.07266e-08)
(0 -0.00021651 -5.03084e-06)
(0 -0.000236262 -3.84067e-06)
(0 -0.000192495 -2.42247e-06)
(0 -0.000216794 -2.2257e-06)
(0 -0.000219087 -1.91854e-06)
(0 -0.000198824 -1.55467e-06)
(0 -0.000222467 -1.57086e-06)
(0 -0.000251855 -1.63886e-06)
(0 -0.000213249 -1.32491e-06)
(0 -0.000254547 -1.50303e-06)
(0 -0.000227375 -1.31444e-06)
(0 -0.000228443 -1.29266e-06)
(0 -0.000258227 -1.42092e-06)
(0 -0.000230604 -1.25624e-06)
(0 -0.000260648 -1.38858e-06)
(0 -0.000199467 -1.06905e-06)
(0 -0.000191201 -1.01433e-06)
(0 -0.000191999 -9.96757e-07)
(0 -0.00022328 -1.12564e-06)
(0 -0.000177492 -8.87435e-07)
(0 -0.000178196 -8.68539e-07)
(0 -0.000268455 -1.2532e-06)
(0 -0.000227054 -1.04936e-06)
(0 -0.000240707 -1.10303e-06)
(0 -0.000181281 -8.38478e-07)
(0 -0.000189944 -8.73348e-07)
(0 -0.000208921 -9.56679e-07)
(0 -0.000200278 -9.23869e-07)
(0 -0.000192378 -8.94289e-07)
(0 -0.000261425 -1.21572e-06)
(0 -0.000212553 -1.00669e-06)
(0 -0.000235949 -1.13138e-06)
(0 -0.000214393 -1.0444e-06)
(0 -0.000301506 -1.46194e-06)
(0 -0.000189237 -9.49812e-07)
(0 -0.000198255 -9.96881e-07)
(0 -0.000228944 -1.13353e-06)
(0 -0.00028747 -1.40027e-06)
(0 -0.000231019 -1.13326e-06)
(0 -0.000201789 -9.9196e-07)
(0 -0.000202743 -9.87387e-07)
(0 -0.000246701 -1.18342e-06)
(0 -0.000204928 -9.86126e-07)
(0 -0.000249558 -1.21256e-06)
(0 -0.000198864 -9.97847e-07)
(0 -0.00032045 -1.68868e-06)
(0 -0.000210633 -1.17494e-06)
(0 -0.000287435 -1.736e-06)
(0 -0.000328858 -2.16569e-06)
(0 -0.00021678 -1.55057e-06)
(0 -0.00028033 -2.22021e-06)
(0 -0.000213181 -1.91887e-06)
(0 -0.000260238 -2.92611e-06)
(0 -0.000280873 -4.72037e-06)
(0 -0.000240269 -4.95768e-06)
(0 -0.000230901 5.72505e-06)
(0 -0.000334201 7.83974e-06)
(0 -0.000212792 1.69996e-06)
(0 -0.000195479 4.56303e-07)
(0 -0.000214008 9.11723e-08)
(0 -0.00013183 -1.81523e-07)
(0 -0.000201127 -4.43848e-08)
(0 -0.000144449 -2.15316e-07)
(0 -0.00018646 -3.1499e-07)
(0 -0.000135042 -3.72635e-07)
(0 -0.000137398 -2.79993e-07)
(0 -0.000169319 -2.77313e-07)
(0 -0.000145082 -1.83886e-07)
(0 -0.00014978 -2.07358e-07)
(0 -0.000129027 -2.03299e-07)
(0 -0.000150667 -3.22455e-07)
(0 -0.000129117 -2.71261e-07)
(0 -0.000142424 -3.36762e-07)
(0 -0.000115102 -3.66358e-07)
(0 -0.000118264 -4.22995e-07)
(0 -9.71511e-05 -4.44564e-07)
(0 -7.758e-05 -3.51319e-07)
(0 -9.97458e-05 -3.39898e-07)
(0 -9.62315e-05 -3.17772e-07)
(0 -8.31935e-05 -3.57328e-07)
(0 -6.89158e-05 -2.75765e-07)
(0 -8.94927e-05 -2.70874e-07)