/*--------------------------------*- C++ -*----------------------------------*\
| =========                 |                                                 |
| \\      /  F ield         | foam-extend: Open Source CFD                    |
|  \\    /   O peration     | Version:     5.0                                |
|   \\  /    A nd           | Web:         http://www.foam-extend.org         |
|    \\/     M anipulation  |                                                 |
\*---------------------------------------------------------------------------*/
FoamFile
{
    version     2.0;
    format      ascii;
    class       volVectorField;
    location    "10000";
    object      U.water;
}
// * * * * * * * * * * * * * * * * * * * * * * * * * * * * * * * * * * * * * //

dimensions      [0 1 -1 0 0 0 0];

internalField   nonuniform List<vector> 
1000
(
(0 0 0)
(0 0 0)
(0 0 0)
(0 0 0)
(0 0 0)
(0 0 0)
(0 0 0)
(0 0 0)
(0 0 0)
(0 0 0)
(0 0 0)
(0 0 0)
(0 0 0)
(0 0 0)
(0 0 0)
(0 0 0)
(0 0 0)
(0 0 0)
(0 0 0)
(0 0 0)
(0 0 0)
(0 0 0)
(0 0 0)
(0 0 0)
(0 0 0)
(0 0 0)
(0 0 0)
(0 0 0)
(0 0 0)
(0 0 0)
(0 0 0)
(0 0 0)
(0 0 0)
(0 0 0)
(0 0 0)
(0 0 0)
(0 0 0)
(0 0 0)
(0 0 0)
(0 0 0)
(0 0 0)
(0 0 0)
(0 0 0)
(0 0 0)
(0 0 0)
(0 0 0)
(0 4.80006e-29 0)
(0 -7.39386e-11 -1.85848e-30)
(0 -0.00202677 9.95147e-14)
(0 -0.00122113 9.66863e-10)
(0 -0.000640991 -3.76805e-10)
(0 -0.00042146 9.38504e-06)
(0 -0.000414878 1.4732e-05)
(0 -0.000481116 1.10427e-05)
(0 -0.000578833 6.3397e-06)
(0 -0.000476917 3.09813e-06)
(0 -0.000670067 2.77202e-06)
(0 -0.000506942 1.5833e-06)
(0 -0.000597446 6.76697e-07)
(0 -0.000634677 -1.37897e-07)
(0 -0.000634007 -3.90957e-07)
(0 -0.000563278 -2.9529e-07)
(0 -0.000422687 -1.62881e-07)
(0 -0.000532151 -5.37212e-07)
(0 -0.00055996 -8.5809e-07)
(0 -0.000437314 -5.46262e-07)
(0 -0.000556075 -1.00549e-06)
(0 -0.000475049 -7.4713e-07)
(0 -0.000551627 -9.84694e-07)
(0 -0.000549226 -1.09517e-06)
(0 -0.00057859 -1.30589e-06)
(0 -0.000466326 -1.00675e-06)
(0 -0.000607893 -1.61304e-06)
(0 -0.000509196 -1.33176e-06)
(0 -0.00050615 -1.2672e-06)
(0 -0.000503188 -1.23617e-06)
(0 -0.000527875 -1.35491e-06)
(0 -0.000524517 -1.49084e-06)
(0 -0.000585786 -1.80778e-06)
(0 -0.000443433 -1.47155e-06)
(0 -0.000485804 -1.6008e-06)
(0 -0.000481737 -1.74685e-06)
(0 -0.000477172 -2.01496e-06)
(0 -0.000560565 -2.47057e-06)
(0 -0.000522557 -2.32273e-06)
(0 -0.0004188 -2.00952e-06)
(0 -0.000542483 -2.7981e-06)
(0 -0.000373601 -1.72849e-06)
(0 -0.000403887 -1.84795e-06)
(0 -0.000380525 -2.00961e-06)
(0 -0.000548895 -3.56515e-06)
(0 -0.000427192 -2.92035e-06)
(0 -0.000363043 -2.33471e-06)
(0 -0.00043559 -3.0582e-06)
(0 -0.000452961 -3.61284e-06)
(0 -0.000377788 -3.17406e-06)
(0 -0.000352006 -2.94801e-06)
(0 -0.000328181 -2.78129e-06)
(0 -0.000467411 -5.14914e-06)
(0 -0.000400557 -5.40962e-06)
(0 0 0)
(0 0 0)
(0 0 0)
(0 0 0)
(0 0 0)
(0 0 0)
(0 0 0)
(0 0 0)
(0 0 0)
(0 0 0)
(0 0 0)
(0 0 0)
(0 0 0)
(0 0 0)
(0 0 0)
(0 0 0)
(0 0 0)
(0 0 0)
(0 0 0)
(0 0 0)
(0 0 0)
(0 0 0)
(0 0 0)
(0 0 0)
(0 0 0)
(0 0 0)
(0 0 0)
(0 0 0)
(0 0 0)
(0 0 0)
(0 0 0)
(0 0 0)
(0 0 0)
(0 0 0)
(0 0 0)
(0 0 0)
(0 0 0)
(0 0 0)
(0 0 0)
(0 0 0)
(0 0 0)
(0 0 0)
(0 0 0)
(0 0 0)
(0 0 0)
(0 0 0)
(0 0 0)
(0 3.66069e-25 -1.85848e-30)
(0 -4.60804e-09 2.24731e-12)
(0 -0.00197487 2.74651e-06)
(0 -0.00117403 -1.67005e-08)
(0 -0.000567454 3.98182e-05)
(0 -0.000479483 5.13282e-05)
(0 -0.00035264 2.32204e-05)
(0 -0.000399831 1.39162e-05)
(0 -0.000391927 8.36265e-06)
(0 -0.000455457 6.24998e-06)
(0 -0.000510195 4.72235e-06)
(0 -0.000386483 1.73474e-06)
(0 -0.000388286 2.38176e-07)
(0 -0.00046629 -6.66639e-07)
(0 -0.000582023 -1.41807e-06)
(0 -0.000546737 -1.55947e-06)
(0 -0.000488103 -1.95563e-06)
(0 -0.000440697 -2.30885e-06)
(0 -0.000613669 -3.39761e-06)
(0 -0.000399406 -2.4377e-06)
(0 -0.000570853 -3.5426e-06)
(0 -0.000534949 -3.58146e-06)
(0 -0.000532466 -3.86198e-06)
(0 -0.000450834 -3.38179e-06)
(0 -0.000427643 -2.96878e-06)
(0 -0.000373141 -2.7064e-06)
(0 -0.000445708 -3.48445e-06)
(0 -0.000521334 -4.29468e-06)
(0 -0.000586992 -5.13001e-06)
(0 -0.000583108 -5.3223e-06)
(0 -0.000435141 -3.86305e-06)
(0 -0.000508743 -4.8138e-06)
(0 -0.00035877 -3.47541e-06)
(0 -0.000533381 -5.62469e-06)
(0 -0.000470748 -5.36641e-06)
(0 -0.000350842 -4.14251e-06)
(0 -0.000521168 -6.8036e-06)
(0 -0.000516936 -6.85204e-06)
(0 -0.000342372 -4.49764e-06)
(0 -0.000428052 -6.09268e-06)
(0 -0.000447131 -6.35665e-06)
(0 -0.000496955 -7.17351e-06)
(0 -0.000357829 -5.38954e-06)
(0 -0.000338783 -5.32164e-06)
(0 -0.000321686 -5.18325e-06)
(0 -0.000447899 -7.6856e-06)
(0 -0.000500704 -9.40159e-06)
(0 -0.000412215 -8.09681e-06)
(0 -0.000366086 -7.27341e-06)
(0 -0.000423351 -8.70868e-06)
(0 -0.000441777 -9.13065e-06)
(0 -0.000462796 -1.15709e-05)
(0 -0.000378685 -1.10226e-05)
(0 0 0)
(0 0 0)
(0 0 0)
(0 0 0)
(0 0 0)
(0 0 0)
(0 0 0)
(0 0 0)
(0 0 0)
(0 0 0)
(0 0 0)
(0 0 0)
(0 0 0)
(0 0 0)
(0 0 0)
(0 0 0)
(0 0 0)
(0 0 0)
(0 0 0)
(0 0 0)
(0 0 0)
(0 0 0)
(0 0 0)
(0 0 0)
(0 0 0)
(0 0 0)
(0 0 0)
(0 0 0)
(0 0 0)
(0 0 0)
(0 0 0)
(0 0 0)
(0 0 0)
(0 0 0)
(0 0 0)
(0 0 0)
(0 0 0)
(0 0 0)
(0 0 0)
(0 0 0)
(0 0 0)
(0 0 0)
(0 0 0)
(0 0 0)
(0 0 0)
(0 0 0)
(0 0 0)
(0 0 0)
(0 1.2462e-15 -7.96435e-27)
(0 -0.000239947 3.43463e-11)
(0 -0.00152086 -5.69993e-10)
(0 -0.000834067 4.14818e-06)
(0 -0.000436501 3.39029e-05)
(0 -0.000381388 2.98175e-05)
(0 -0.000369511 1.96565e-05)
(0 -0.000393677 1.39729e-05)
(0 -0.000543447 1.18583e-05)
(0 -0.000581996 7.40794e-06)
(0 -0.000582979 3.46909e-06)
(0 -0.000438157 3.93312e-07)
(0 -0.000546334 -1.83423e-06)
(0 -0.000581292 -3.77397e-06)
(0 -0.000483643 -3.70569e-06)
(0 -0.000510694 -4.36624e-06)
(0 -0.000394365 -3.728e-06)
(0 -0.000376662 -3.92318e-06)
(0 -0.000479382 -5.3499e-06)
(0 -0.000452616 -5.35993e-06)
(0 -0.000476036 -5.86246e-06)
(0 -0.000388647 -4.85641e-06)
(0 -0.000355441 -4.25317e-06)
(0 -0.000446982 -5.17528e-06)
(0 -0.00052817 -6.10621e-06)
(0 -0.000351362 -4.18199e-06)
(0 -0.000399883 -5.23623e-06)
(0 -0.000364044 -5.02204e-06)
(0 -0.000379141 -5.50473e-06)
(0 -0.000552587 -7.83633e-06)
(0 -0.000412914 -5.89161e-06)
(0 -0.0003737 -5.24509e-06)
(0 -0.000341119 -5.11806e-06)
(0 -0.000339584 -5.43436e-06)
(0 -0.000449546 -7.35254e-06)
(0 -0.0003357 -5.80578e-06)
(0 -0.00038136 -6.67427e-06)
(0 -0.000418714 -7.25103e-06)
(0 -0.000359369 -6.47688e-06)
(0 -0.000327301 -6.15262e-06)
(0 -0.000371072 -7.11085e-06)
(0 -0.000322436 -5.98791e-06)
(0 -0.000509997 -9.45902e-06)
(0 -0.000445909 -8.56445e-06)
(0 -0.000394736 -8.81208e-06)
(0 -0.00041154 -9.9645e-06)
(0 -0.000430259 -1.04472e-05)
(0 -0.00040098 -9.77168e-06)
(0 -0.000309754 -7.46577e-06)
(0 -0.000437581 -1.09822e-05)
(0 -0.000345875 -9.09769e-06)
(0 -0.000310113 -8.67338e-06)
(0 0 0)
(0 0 0)
(0 0 0)
(0 0 0)
(0 0 0)
(0 0 0)
(0 0 0)
(0 0 0)
(0 0 0)
(0 0 0)
(0 0 0)
(0 0 0)
(0 0 0)
(0 0 0)
(0 0 0)
(0 0 0)
(0 0 0)
(0 0 0)
(0 0 0)
(0 0 0)
(0 0 0)
(0 0 0)
(0 0 0)
(0 0 0)
(0 0 0)
(0 0 0)
(0 0 0)
(0 0 0)
(0 0 0)
(0 0 0)
(0 0 0)
(0 0 0)
(0 0 0)
(0 0 0)
(0 0 0)
(0 0 0)
(0 0 0)
(0 0 0)
(0 0 0)
(0 0 0)
(0 0 0)
(0 0 0)
(0 0 0)
(0 0 0)
(0 0 0)
(0 0 0)
(0 0 0)
(0 0 0)
(0 3.4137e-29 0)
(0 -7.08179e-11 -1.04539e-17)
(0 -0.00197838 -2.80788e-13)
(0 -0.00118073 3.34023e-08)
(0 -0.000597961 1.94875e-05)
(0 -0.000353346 2.83495e-05)
(0 -0.00035629 2.52045e-05)
(0 -0.000485992 2.459e-05)
(0 -0.000383318 1.16113e-05)
(0 -0.000563263 8.96688e-06)
(0 -0.000472064 2.57886e-06)
(0 -0.00050009 -2.51847e-07)
(0 -0.000500223 -2.92348e-06)
(0 -0.000405691 -3.72239e-06)
(0 -0.000566492 -6.2451e-06)
(0 -0.000530357 -6.33208e-06)
(0 -0.00044629 -5.44104e-06)
(0 -0.000528466 -6.88168e-06)
(0 -0.000367656 -5.20407e-06)
(0 -0.00046838 -6.93102e-06)
(0 -0.000383116 -5.5229e-06)
(0 -0.000400817 -5.7338e-06)
(0 -0.000558809 -8.12724e-06)
(0 -0.000522058 -7.72797e-06)
(0 -0.000462639 -6.98859e-06)
(0 -0.000552777 -8.08664e-06)
(0 -0.000360006 -5.33964e-06)
(0 -0.000458123 -7.04105e-06)
(0 -0.000343065 -5.36186e-06)
(0 -0.000482021 -8.17273e-06)
(0 -0.000453642 -7.46252e-06)
(0 -0.000428035 -6.95081e-06)
(0 -0.000505344 -8.50652e-06)
(0 -0.000383261 -6.79229e-06)
(0 -0.000363762 -6.8095e-06)
(0 -0.000378827 -6.91337e-06)
(0 -0.000395541 -7.19065e-06)
(0 -0.000328228 -6.01135e-06)
(0 -0.000355936 -6.43529e-06)
(0 -0.000324474 -5.98235e-06)
(0 -0.00033622 -6.15829e-06)
(0 -0.000365474 -6.62515e-06)
(0 -0.000475186 -9.70423e-06)
(0 -0.000502263 -1.1119e-05)
(0 -0.000311683 -7.30936e-06)
(0 -0.000336371 -8.28034e-06)
(0 -0.000406417 -1.04914e-05)
(0 -0.000329117 -8.43801e-06)
(0 -0.000474781 -1.21795e-05)
(0 -0.000390107 -1.04377e-05)
(0 -0.000406574 -1.01749e-05)
(0 -0.000310053 -6.87787e-06)
(0 0 0)
(0 0 0)
(0 0 0)
(0 0 0)
(0 0 0)
(0 0 0)
(0 0 0)
(0 0 0)
(0 0 0)
(0 0 0)
(0 0 0)
(0 0 0)
(0 0 0)
(0 0 0)
(0 0 0)
(0 0 0)
(0 0 0)
(0 0 0)
(0 0 0)
(0 0 0)
(0 0 0)
(0 0 0)
(0 0 0)
(0 0 0)
(0 0 0)
(0 0 0)
(0 0 0)
(0 0 0)
(0 0 0)
(0 0 0)
(0 0 0)
(0 0 0)
(0 0 0)
(0 0 0)
(0 0 0)
(0 0 0)
(0 0 0)
(0 0 0)
(0 0 0)
(0 0 0)
(0 0 0)
(0 0 0)
(0 0 0)
(0 0 0)
(0 0 0)
(0 0 0)
(0 0 0)
(0 0 0)
(0 0 0)
(0 7.39399e-16 -4.16098e-31)
(0 -0.000207402 4.09291e-13)
(0 -0.00150663 4.29808e-09)
(0 -0.000820842 1.23796e-06)
(0 -0.000474147 2.01339e-05)
(0 -0.000421917 3.8598e-05)
(0 -0.000386279 2.56139e-05)
(0 -0.000513024 2.01827e-05)
(0 -0.000517001 1.01952e-05)
(0 -0.000380036 2.85332e-06)
(0 -0.0005565 -2.69931e-07)
(0 -0.000440657 -2.7079e-06)
(0 -0.000522529 -5.00319e-06)
(0 -0.000418491 -4.89367e-06)
(0 -0.000464706 -5.8975e-06)
(0 -0.000522044 -6.96677e-06)
(0 -0.000417699 -5.8233e-06)
(0 -0.000379674 -5.43897e-06)
(0 -0.000347926 -5.16234e-06)
(0 -0.000554632 -8.06246e-06)
(0 -0.000437441 -6.39338e-06)
(0 -0.000361106 -5.56462e-06)
(0 -0.000394812 -6.03831e-06)
(0 -0.00037655 -5.71947e-06)
(0 -0.000413472 -6.14204e-06)
(0 -0.00048522 -7.09506e-06)
(0 -0.00039215 -5.92973e-06)
(0 -0.000546725 -8.29604e-06)
(0 -0.000356133 -5.89933e-06)
(0 -0.000543249 -9.07046e-06)
(0 -0.00050751 -8.57074e-06)
(0 -0.000385718 -6.49372e-06)
(0 -0.000367069 -6.33602e-06)
(0 -0.000349724 -6.22099e-06)
(0 -0.000499311 -9.15302e-06)
(0 -0.000529347 -9.76671e-06)
(0 -0.000438559 -7.90365e-06)
(0 -0.00052204 -9.52457e-06)
(0 -0.000353734 -6.40326e-06)
(0 -0.000481293 -8.93206e-06)
(0 -0.000477024 -9.04591e-06)
(0 -0.00034479 -6.96211e-06)
(0 -0.00031409 -6.72174e-06)
(0 -0.00032513 -6.98338e-06)
(0 -0.000389389 -8.98449e-06)
(0 -0.000348782 -8.74396e-06)
(0 -0.000401494 -1.02284e-05)
(0 -0.000324761 -8.39149e-06)
(0 -0.000335689 -8.60041e-06)
(0 -0.000407906 -9.91874e-06)
(0 -0.000453175 -9.8245e-06)
(0 0 0)
(0 0 0)
(0 0 0)
(0 0 0)
(0 0 0)
(0 0 0)
(0 0 0)
(0 0 0)
(0 0 0)
(0 0 0)
(0 0 0)
(0 0 0)
(0 0 0)
(0 0 0)
(0 0 0)
(0 0 0)
(0 0 0)
(0 0 0)
(0 0 0)
(0 0 0)
(0 0 0)
(0 0 0)
(0 0 0)
(0 0 0)
(0 0 0)
(0 0 0)
(0 0 0)
(0 0 0)
(0 0 0)
(0 0 0)
(0 0 0)
(0 0 0)
(0 0 0)
(0 0 0)
(0 0 0)
(0 0 0)
(0 0 0)
(0 0 0)
(0 0 0)
(0 0 0)
(0 0 0)
(0 0 0)
(0 0 0)
(0 0 0)
(0 0 0)
(0 0 0)
(0 0 0)
(0 0 0)
(0 0 0)
(0 2.82367e-30 0)
(0 -2.28208e-11 -7.64888e-18)
(0 -0.00213725 4.25814e-08)
(0 -0.00130927 -4.7208e-09)
(0 -0.000664325 3.2801e-05)
(0 -0.000391898 4.00604e-05)
(0 -0.000504207 4.52129e-05)
(0 -0.000400223 1.90548e-05)
(0 -0.000406948 9.69485e-06)
(0 -0.000454845 4.60422e-06)
(0 -0.000482594 -1.48477e-07)
(0 -0.000456569 -2.98842e-06)
(0 -0.000374719 -3.63419e-06)
(0 -0.000412404 -4.60484e-06)
(0 -0.000393488 -4.58614e-06)
(0 -0.000360205 -4.53859e-06)
(0 -0.000377019 -4.73805e-06)
(0 -0.000346122 -4.5138e-06)
(0 -0.000346171 -4.5733e-06)
(0 -0.00046068 -6.56798e-06)
(0 -0.000460183 -6.67217e-06)
(0 -0.000345173 -4.90446e-06)
(0 -0.000458894 -6.47131e-06)
(0 -0.000392939 -5.43758e-06)
(0 -0.000548084 -7.74586e-06)
(0 -0.000431998 -6.13062e-06)
(0 -0.000454553 -6.7354e-06)
(0 -0.000509391 -7.81942e-06)
(0 -0.000369718 -5.88793e-06)
(0 -0.000476041 -8.01398e-06)
(0 -0.00035116 -5.78937e-06)
(0 -0.000535393 -8.76333e-06)
(0 -0.0003339 -5.25845e-06)
(0 -0.00033253 -5.26048e-06)
(0 -0.000345496 -6.00025e-06)
(0 -0.000395242 -7.20093e-06)
(0 -0.000436572 -8.07108e-06)
(0 -0.000372194 -6.95663e-06)
(0 -0.000369766 -6.66197e-06)
(0 -0.000350639 -6.59933e-06)
(0 -0.000402904 -7.80569e-06)
(0 -0.000422192 -7.86816e-06)
(0 -0.000396937 -7.60407e-06)
(0 -0.000414828 -8.54303e-06)
(0 -0.000352196 -7.80607e-06)
(0 -0.000318403 -7.41167e-06)
(0 -0.000301901 -7.13794e-06)
(0 -0.000376259 -8.67213e-06)
(0 -0.00037132 -8.51269e-06)
(0 -0.000462127 -1.12312e-05)
(0 -0.000453087 -1.19595e-05)
(0 0 0)
(0 0 0)
(0 0 0)
(0 0 0)
(0 0 0)
(0 0 0)
(0 0 0)
(0 0 0)
(0 0 0)
(0 0 0)
(0 0 0)
(0 0 0)
(0 0 0)
(0 0 0)
(0 0 0)
(0 0 0)
(0 0 0)
(0 0 0)
(0 0 0)
(0 0 0)
(0 0 0)
(0 0 0)
(0 0 0)
(0 0 0)
(0 0 0)
(0 0 0)
(0 0 0)
(0 0 0)
(0 0 0)
(0 0 0)
(0 0 0)
(0 0 0)
(0 0 0)
(0 0 0)
(0 0 0)
(0 0 0)
(0 0 0)
(0 0 0)
(0 0 0)
(0 0 0)
(0 0 0)
(0 0 0)
(0 0 0)
(0 0 0)
(0 0 0)
(0 0 0)
(0 0 0)
(0 0 0)
(0 0 0)
(0 0 0)
(0 1.96701e-23 -4.82559e-32)
(0 -3.66209e-08 2.69949e-13)
(0 -0.00189739 3.41178e-07)
(0 -0.00110508 7.56494e-06)
(0 -0.000555584 4.35252e-05)
(0 -0.000354609 2.88093e-05)
(0 -0.000379417 1.56044e-05)
(0 -0.000470996 1.1156e-05)
(0 -0.0004058 4.30028e-06)
(0 -0.000372339 2.5442e-07)
(0 -0.000343436 -1.92715e-06)
(0 -0.000375212 -2.9636e-06)
(0 -0.000375852 -3.59282e-06)
(0 -0.000550134 -5.57448e-06)
(0 -0.000359862 -3.70025e-06)
(0 -0.000486126 -5.14056e-06)
(0 -0.000344999 -3.81096e-06)
(0 -0.000434943 -5.01381e-06)
(0 -0.000393481 -5.05064e-06)
(0 -0.000375447 -5.00544e-06)
(0 -0.000392788 -5.01722e-06)
(0 -0.000392291 -4.99067e-06)
(0 -0.000456758 -5.82921e-06)
(0 -0.000432006 -5.94117e-06)
(0 -0.000545463 -7.5248e-06)
(0 -0.000355613 -5.01805e-06)
(0 -0.000542945 -8.27355e-06)
(0 -0.000369685 -5.67535e-06)
(0 -0.000368505 -5.90864e-06)
(0 -0.000474827 -7.32084e-06)
(0 -0.000383335 -6.26462e-06)
(0 -0.000470804 -7.36977e-06)
(0 -0.000530069 -8.6295e-06)
(0 -0.000344157 -5.67789e-06)
(0 -0.000342351 -5.79645e-06)
(0 -0.000326606 -5.78708e-06)
(0 -0.000324894 -5.60373e-06)
(0 -0.000352251 -5.9502e-06)
(0 -0.000334986 -5.65343e-06)
(0 -0.000332828 -5.83038e-06)
(0 -0.000474294 -8.44004e-06)
(0 -0.000418614 -8.02427e-06)
(0 -0.000325054 -6.64135e-06)
(0 -0.000336424 -6.93187e-06)
(0 -0.000332778 -7.22394e-06)
(0 -0.000360954 -7.90896e-06)
(0 -0.00037445 -8.41825e-06)
(0 -0.00036904 -8.28111e-06)
(0 -0.000363614 -8.90768e-06)
(0 -0.000340269 -9.14119e-06)
(0 0 0)
(0 0 0)
(0 0 0)
(0 0 0)
(0 0 0)
(0 0 0)
(0 0 0)
(0 0 0)
(0 0 0)
(0 0 0)
(0 0 0)
(0 0 0)
(0 0 0)
(0 0 0)
(0 0 0)
(0 0 0)
(0 0 0)
(0 0 0)
(0 0 0)
(0 0 0)
(0 0 0)
(0 0 0)
(0 0 0)
(0 0 0)
(0 0 0)
(0 0 0)
(0 0 0)
(0 0 0)
(0 0 0)
(0 0 0)
(0 0 0)
(0 0 0)
(0 0 0)
(0 0 0)
(0 0 0)
(0 0 0)
(0 0 0)
(0 0 0)
(0 0 0)
(0 0 0)
(0 0 0)
(0 0 0)
(0 0 0)
(0 0 0)
(0 0 0)
(0 0 0)
(0 0 0)
(0 0 0)
(0 0 0)
(0 0 0)
(0 3.28463e-24 0)
(0 -1.22114e-08 -5.17353e-25)
(0 -0.00173869 1.43582e-12)
(0 -0.000996957 1.01057e-08)
(0 -0.000515315 2.02268e-06)
(0 -0.000346787 1.17354e-05)
(0 -0.000388508 1.57908e-05)
(0 -0.000483922 1.09396e-05)
(0 -0.000548088 5.16041e-06)
(0 -0.000433637 8.79021e-07)
(0 -0.000344192 -1.14889e-06)
(0 -0.000483524 -3.00582e-06)
(0 -0.00041097 -3.2734e-06)
(0 -0.000482652 -4.33019e-06)
(0 -0.000482399 -4.23425e-06)
(0 -0.000511959 -4.82467e-06)
(0 -0.000356739 -3.20686e-06)
(0 -0.000455174 -4.53434e-06)
(0 -0.000356692 -3.72366e-06)
(0 -0.000342005 -3.67365e-06)
(0 -0.000372908 -3.89035e-06)
(0 -0.000545536 -6.09914e-06)
(0 -0.000544438 -6.4524e-06)
(0 -0.000388692 -4.79786e-06)
(0 -0.000478878 -6.16008e-06)
(0 -0.000477976 -6.00434e-06)
(0 -0.000353187 -4.74689e-06)
(0 -0.000368616 -4.86958e-06)
(0 -0.000351953 -4.76178e-06)
(0 -0.000537412 -7.47478e-06)
(0 -0.000350223 -5.04757e-06)
(0 -0.000500924 -7.57325e-06)
(0 -0.000333377 -5.28531e-06)
(0 -0.000418836 -6.35367e-06)
(0 -0.000494672 -7.5799e-06)
(0 -0.000342919 -5.17745e-06)
(0 -0.000435126 -6.58199e-06)
(0 -0.000432355 -6.66823e-06)
(0 -0.000454403 -7.01309e-06)
(0 -0.000478779 -8.01207e-06)
(0 -0.000506512 -8.66331e-06)
(0 -0.000343714 -6.05804e-06)
(0 -0.000326265 -5.75081e-06)
(0 -0.000463723 -8.80702e-06)
(0 -0.000319878 -6.36579e-06)
(0 -0.000381872 -8.19646e-06)
(0 -0.0004207 -9.68548e-06)
(0 -0.000469502 -1.06895e-05)
(0 -0.000462233 -1.13593e-05)
(0 -0.000400411 -1.03154e-05)
(0 0 0)
(0 0 0)
(0 0 0)
(0 0 0)
(0 0 0)
(0 0 0)
(0 0 0)
(0 0 0)
(0 0 0)
(0 0 0)
(0 0 0)
(0 0 0)
(0 0 0)
(0 0 0)
(0 0 0)
(0 0 0)
(0 0 0)
(0 0 0)
(0 0 0)
(0 0 0)
(0 0 0)
(0 0 0)
(0 0 0)
(0 0 0)
(0 0 0)
(0 0 0)
(0 0 0)
(0 0 0)
(0 0 0)
(0 0 0)
(0 0 0)
(0 0 0)
(0 0 0)
(0 0 0)
(0 0 0)
(0 0 0)
(0 0 0)
(0 0 0)
(0 0 0)
(0 0 0)
(0 0 0)
(0 0 0)
(0 0 0)
(0 0 0)
(0 0 0)
(0 0 0)
(0 0 0)
(0 0 0)
(0 0 0)
(0 0 0)
(0 0 0)
(0 3.08671e-15 -9.01634e-26)
(0 -0.000541452 2.91294e-10)
(0 -0.00144038 1.45249e-07)
(0 -0.000776238 4.16098e-06)
(0 -0.000438289 2.3072e-05)
(0 -0.000361135 2.00697e-05)
(0 -0.000389896 9.93214e-06)
(0 -0.000392683 2.96563e-06)
(0 -0.000435672 4.14162e-07)
(0 -0.000342256 -1.15659e-06)
(0 -0.000342285 -1.73911e-06)
(0 -0.000342955 -2.21397e-06)
(0 -0.000394563 -2.79554e-06)
(0 -0.000492997 -3.84679e-06)
(0 -0.000376317 -3.0058e-06)
(0 -0.000493314 -3.52604e-06)
(0 -0.000343991 -2.59733e-06)
(0 -0.00037687 -2.79195e-06)
(0 -0.000330168 -2.47513e-06)
(0 -0.000494266 -3.77389e-06)
(0 -0.000344577 -2.96669e-06)
(0 -0.000360585 -3.26354e-06)
(0 -0.000396812 -3.6962e-06)
(0 -0.000396893 -3.93644e-06)
(0 -0.000528344 -5.552e-06)
(0 -0.000439865 -4.74256e-06)
(0 -0.000415917 -4.27259e-06)
(0 -0.000375774 -3.89657e-06)
(0 -0.000491694 -5.69285e-06)
(0 -0.000392819 -4.64833e-06)
(0 -0.000356439 -4.33075e-06)
(0 -0.000326114 -4.07281e-06)
(0 -0.000410007 -5.1784e-06)
(0 -0.00033794 -4.27741e-06)
(0 -0.000386864 -4.72156e-06)
(0 -0.000385053 -5.00308e-06)
(0 -0.000364935 -4.9181e-06)
(0 -0.000507162 -7.57326e-06)
(0 -0.000315645 -5.03163e-06)
(0 -0.000500431 -7.9374e-06)
(0 -0.000355804 -5.22597e-06)
(0 -0.000411326 -6.36025e-06)
(0 -0.000319414 -5.58031e-06)
(0 -0.000316211 -5.44919e-06)
(0 -0.000326805 -6.47016e-06)
(0 -0.000308743 -6.82841e-06)
(0 -0.000411368 -9.13176e-06)
(0 -0.000329562 -7.7029e-06)
(0 -0.000358155 -9.07487e-06)
(0 0 0)
(0 0 0)
(0 0 0)
(0 0 0)
(0 0 0)
(0 0 0)
(0 0 0)
(0 0 0)
(0 0 0)
(0 0 0)
(0 0 0)
(0 0 0)
(0 0 0)
(0 0 0)
(0 0 0)
(0 0 0)
(0 0 0)
(0 0 0)
(0 0 0)
(0 0 0)
(0 0 0)
(0 0 0)
(0 0 0)
(0 0 0)
(0 0 0)
(0 0 0)
(0 0 0)
(0 0 0)
(0 0 0)
(0 0 0)
(0 0 0)
(0 0 0)
(0 0 0)
(0 0 0)
(0 0 0)
(0 0 0)
(0 0 0)
(0 0 0)
(0 0 0)
(0 0 0)
(0 0 0)
(0 0 0)
(0 0 0)
(0 0 0)
(0 0 0)
(0 0 0)
(0 0 0)
(0 0 0)
(0 0 0)
(0 0 0)
(0 0 0)
(0 5.28133e-28 0)
(0 -1.95427e-10 -6.27889e-17)
(0 -0.00182367 2.12152e-07)
(0 -0.00105602 6.01452e-07)
(0 -0.00051763 1.52031e-05)
(0 -0.000403482 1.53488e-05)
(0 -0.00032708 5.41667e-06)
(0 -0.000347215 1.23084e-06)
(0 -0.0004114 -1.62441e-07)
(0 -0.000277295 -7.76535e-07)
(0 -0.000441399 -1.16465e-06)
(0 -0.000332514 -1.13548e-06)
(0 -0.000443499 -1.6541e-06)
(0 -0.000334427 -1.57182e-06)
(0 -0.000353146 -1.58262e-06)
(0 -0.000448024 -1.85742e-06)
(0 -0.000396422 -1.52345e-06)
(0 -0.000421719 -1.57656e-06)
(0 -0.00037554 -1.40527e-06)
(0 -0.00045095 -1.85551e-06)
(0 -0.000398812 -1.64669e-06)
(0 -0.000452434 -1.86776e-06)
(0 -0.000377993 -1.72555e-06)
(0 -0.000400984 -1.96789e-06)
(0 -0.000342099 -1.98765e-06)
(0 -0.000286241 -1.76125e-06)
(0 -0.000381987 -2.12583e-06)
(0 -0.000382776 -2.08702e-06)
(0 -0.000345493 -2.19909e-06)
(0 -0.000301369 -1.97251e-06)
(0 -0.000407865 -2.47997e-06)
(0 -0.00028981 -1.87755e-06)
(0 -0.000331247 -2.23882e-06)
(0 -0.000366254 -2.31581e-06)
(0 -0.000366408 -2.35015e-06)
(0 -0.000331774 -2.29241e-06)
(0 -0.000386894 -2.72664e-06)
(0 -0.000303528 -2.59061e-06)
(0 -0.000303648 -2.54318e-06)
(0 -0.000387524 -3.30523e-06)
(0 -0.000464832 -3.50242e-06)
(0 -0.000348929 -2.95537e-06)
(0 -0.000316757 -2.82285e-06)
(0 -0.000408088 -3.49308e-06)
(0 -0.000315012 -3.15105e-06)
(0 -0.000300165 -3.30349e-06)
(0 -0.000457102 -5.02338e-06)
(0 -0.000427578 -4.62367e-06)
(0 -0.000378187 -4.54452e-06)
)
;

boundaryField
{
    inlet
    {
        type            fixedValue;
        value           uniform (0 -0.0005 0);
    }
    outlet
    {
        type            fluxCorrectedVelocity;
        phi             phi.water;
        rho             rho.water;
        value           uniform (0 0 0);
    }
    walls
    {
        type            fixedValue;
        value           uniform (0 0 0);
    }
}


// ************************************************************************* //
