/*--------------------------------*- C++ -*----------------------------------*\
| =========                 |                                                 |
| \\      /  F ield         | foam-extend: Open Source CFD                    |
|  \\    /   O peration     | Version:     5.0                                |
|   \\  /    A nd           | Web:         http://www.foam-extend.org         |
|    \\/     M anipulation  |                                                 |
\*---------------------------------------------------------------------------*/
FoamFile
{
    version     2.0;
    format      ascii;
    class       volScalarField;
    location    "10";
    object      alpha.gas;
}
// * * * * * * * * * * * * * * * * * * * * * * * * * * * * * * * * * * * * * //

dimensions      [0 0 0 0 0 0 0];

internalField   nonuniform List<scalar> 
100
(
0.092861
0.0916951
0.0906039
0.0893323
0.0881796
0.087084
0.0861253
0.0850194
0.0839153
0.0829916
0.0820407
0.0809913
0.0800307
0.079106
0.0780398
0.0771091
0.0763024
0.0754763
0.0746004
0.0739954
0.0732175
0.072378
0.0714655
0.0706676
0.069993
0.0691565
0.0685177
0.0678347
0.0671831
0.066508
0.0659009
0.0652974
0.0646719
0.0640877
0.0635263
0.0629759
0.0624541
0.0619006
0.0614159
0.0609065
0.0604489
0.0599696
0.0594852
0.0590036
0.058517
0.0580471
0.0575967
0.0571715
0.056719
0.0562952
0.0558599
0.0554689
0.0550747
0.0546096
0.0541964
0.0538435
0.053523
0.0532238
0.0528297
0.052461
0.0521328
0.0517387
0.0514675
0.0511035
0.0508025
0.0504215
0.0501356
0.0498208
0.0495207
0.0492305
0.0489621
0.0486559
0.0483763
0.0480596
0.0477648
0.0475304
0.0472348
0.0469868
0.0467726
0.0465066
0.0461837
0.0459633
0.0457153
0.0454863
0.0452719
0.0449814
0.044777
0.04453
0.0442952
0.0440532
0.043832
0.043645
0.043446
0.0432224
0.0430281
0.0428347
0.0426441
0.0425215
0.0423785
0.0422854
)
;

boundaryField
{
    inlet
    {
        type            fixedValue;
        value           uniform 0.2;
    }
    outlet
    {
        type            zeroGradient;
    }
    yzfaces
    {
        type            empty;
    }
}


// ************************************************************************* //
