/*--------------------------------*- C++ -*----------------------------------*\
| =========                 |                                                 |
| \\      /  F ield         | foam-extend: Open Source CFD                    |
|  \\    /   O peration     | Version:     5.0                                |
|   \\  /    A nd           | Web:         http://www.foam-extend.org         |
|    \\/     M anipulation  |                                                 |
\*---------------------------------------------------------------------------*/
FoamFile
{
    version     2.0;
    format      ascii;
    class       volScalarField;
    location    "10";
    object      CO2.gas;
}
// * * * * * * * * * * * * * * * * * * * * * * * * * * * * * * * * * * * * * //

dimensions      [0 0 0 0 0 0 0];

internalField   nonuniform List<scalar> 
100
(
0.046401
0.0458472
0.0453454
0.0446731
0.0440479
0.0435305
0.0431197
0.0425729
0.0419569
0.0414921
0.0410334
0.0404679
0.0400128
0.0395283
0.0389772
0.0385305
0.0381782
0.0377813
0.0373194
0.0370511
0.0366942
0.0362645
0.0357954
0.0353617
0.0350306
0.0346003
0.0342967
0.0339508
0.0336296
0.0332976
0.0329995
0.0326967
0.0323794
0.0320842
0.0317906
0.031495
0.0312361
0.0309416
0.0306979
0.0304458
0.030232
0.0299919
0.0297363
0.029495
0.0292568
0.0290415
0.028809
0.0285967
0.0283546
0.0281505
0.0279485
0.0277596
0.0275589
0.0273121
0.0270784
0.0269123
0.0267523
0.0266112
0.0263988
0.0262028
0.0260493
0.0258412
0.0257275
0.0255424
0.0254005
0.0252195
0.0250773
0.0249271
0.0247665
0.0246185
0.02449
0.024333
0.0241931
0.0240302
0.0238822
0.0237759
0.0236206
0.0234949
0.0233939
0.023247
0.0230782
0.0229672
0.0228438
0.0227289
0.0226153
0.0224608
0.0223634
0.0222444
0.0221323
0.0220076
0.0218904
0.0217993
0.0217102
0.0216043
0.0215151
0.021419
0.0213249
0.0212726
0.0212014
0.0211463
)
;

boundaryField
{
    inlet
    {
        type            fixedValue;
        value           uniform 0.1;
    }
    outlet
    {
        type            zeroGradient;
    }
    yzfaces
    {
        type            empty;
    }
}


// ************************************************************************* //
