/*--------------------------------*- C++ -*----------------------------------*\
| =========                 |                                                 |
| \\      /  F ield         | foam-extend: Open Source CFD                    |
|  \\    /   O peration     | Version:     5.0                                |
|   \\  /    A nd           | Web:         http://www.foam-extend.org         |
|    \\/     M anipulation  |                                                 |
\*---------------------------------------------------------------------------*/
FoamFile
{
    version     2.0;
    format      ascii;
    class       volScalarField;
    location    "10";
    object      H2O.gas;
}
// * * * * * * * * * * * * * * * * * * * * * * * * * * * * * * * * * * * * * //

dimensions      [0 0 0 0 0 0 0];

internalField   nonuniform List<scalar> 
100
(
0.0464319
0.0458379
0.0453431
0.0446651
0.0441245
0.0435687
0.0430469
0.0424498
0.0418951
0.0415005
0.0410265
0.0404829
0.0400164
0.0395908
0.0390419
0.0385392
0.0381129
0.0377053
0.037229
0.0369498
0.0365546
0.0361349
0.0356651
0.0353078
0.0349869
0.0345271
0.0342259
0.0338719
0.0335668
0.0332138
0.0329007
0.0325964
0.0322821
0.031996
0.0317278
0.031477
0.0312302
0.0309574
0.0307273
0.030458
0.0302246
0.0299803
0.0297547
0.0295143
0.0292567
0.0290007
0.0287806
0.0285803
0.0283616
0.028131
0.0279
0.0277148
0.0275243
0.0272877
0.0271157
0.0269271
0.0267719
0.0266272
0.0264256
0.0262475
0.0260815
0.0258803
0.0257492
0.0255532
0.0254072
0.0251899
0.0250522
0.0248969
0.0247509
0.0246138
0.0244745
0.0243245
0.0241913
0.0240312
0.023881
0.0237651
0.023616
0.0234915
0.0233855
0.0232633
0.0230992
0.0229967
0.0228722
0.0227662
0.022667
0.0225105
0.0224123
0.0222825
0.0221576
0.022041
0.0219355
0.0218448
0.0217397
0.0216146
0.0215124
0.0214157
0.0213185
0.0212572
0.0211738
0.0211236
)
;

boundaryField
{
    inlet
    {
        type            fixedValue;
        value           uniform 0.1;
    }
    outlet
    {
        type            zeroGradient;
    }
    yzfaces
    {
        type            empty;
    }
}


// ************************************************************************* //
