/*--------------------------------*- C++ -*----------------------------------*\
| =========                 |                                                 |
| \\      /  F ield         | foam-extend: Open Source CFD                    |
|  \\    /   O peration     | Version:     5.0                                |
|   \\  /    A nd           | Web:         http://www.foam-extend.org         |
|    \\/     M anipulation  |                                                 |
\*---------------------------------------------------------------------------*/
FoamFile
{
    version     2.0;
    format      ascii;
    class       surfaceScalarField;
    location    "10";
    object      phi;
}
// * * * * * * * * * * * * * * * * * * * * * * * * * * * * * * * * * * * * * //

dimensions      [0 3 -1 0 0 0 0];

internalField   nonuniform List<scalar> 
99
(
1.22957e-06
1.22583e-06
1.22101e-06
1.22254e-06
1.22373e-06
1.22173e-06
1.21145e-06
1.20759e-06
1.22117e-06
1.21401e-06
1.20893e-06
1.21632e-06
1.21013e-06
1.20845e-06
1.20904e-06
1.21536e-06
1.21743e-06
1.21152e-06
1.22167e-06
1.22451e-06
1.2221e-06
1.22212e-06
1.22146e-06
1.22026e-06
1.21959e-06
1.22683e-06
1.22417e-06
1.22932e-06
1.22717e-06
1.22894e-06
1.22635e-06
1.22889e-06
1.23066e-06
1.22979e-06
1.23143e-06
1.23278e-06
1.22822e-06
1.22959e-06
1.22748e-06
1.22767e-06
1.22732e-06
1.22666e-06
1.22703e-06
1.22598e-06
1.22621e-06
1.22534e-06
1.22744e-06
1.22558e-06
1.22664e-06
1.22931e-06
1.23135e-06
1.22894e-06
1.22684e-06
1.22934e-06
1.22732e-06
1.22803e-06
1.22978e-06
1.22483e-06
1.22633e-06
1.22766e-06
1.227e-06
1.2316e-06
1.22718e-06
1.23075e-06
1.22891e-06
1.23216e-06
1.23161e-06
1.22874e-06
1.23119e-06
1.22976e-06
1.22916e-06
1.2306e-06
1.22711e-06
1.22765e-06
1.22801e-06
1.22502e-06
1.22441e-06
1.22523e-06
1.22418e-06
1.22356e-06
1.22572e-06
1.22581e-06
1.22721e-06
1.224e-06
1.21865e-06
1.22465e-06
1.22374e-06
1.22437e-06
1.22463e-06
1.22513e-06
1.22722e-06
1.22666e-06
1.22589e-06
1.22709e-06
1.22713e-06
1.22624e-06
1.2277e-06
1.22397e-06
1.22313e-06
)
;

boundaryField
{
    inlet
    {
        type            calculated;
        value           uniform -1.225e-06;
    }
    outlet
    {
        type            calculated;
        value           uniform 1.22824e-06;
    }
    yzfaces
    {
        type            empty;
    }
}


// ************************************************************************* //
