/*--------------------------------*- C++ -*----------------------------------*\
| =========                 |                                                 |
| \\      /  F ield         | foam-extend: Open Source CFD                    |
|  \\    /   O peration     | Version:     5.0                                |
|   \\  /    A nd           | Web:         http://www.foam-extend.org         |
|    \\/     M anipulation  |                                                 |
\*---------------------------------------------------------------------------*/
FoamFile
{
    version     2.0;
    format      ascii;
    class       volVectorField;
    location    "10";
    object      U.gas;
}
// * * * * * * * * * * * * * * * * * * * * * * * * * * * * * * * * * * * * * //

dimensions      [0 1 -1 0 0 0 0];

internalField   nonuniform List<vector> 
100
(
(0.0107776 0 0)
(0.0108949 0 0)
(0.0109888 0 0)
(0.0111248 0 0)
(0.0112505 0 0)
(0.0113547 0 0)
(0.0114132 0 0)
(0.0114978 0 0)
(0.0116592 0 0)
(0.0117876 0 0)
(0.0118655 0 0)
(0.0120146 0 0)
(0.0121323 0 0)
(0.0122306 0 0)
(0.0123737 0 0)
(0.0125054 0 0)
(0.0126482 0 0)
(0.0127569 0 0)
(0.0128796 0 0)
(0.013022 0 0)
(0.0131756 0 0)
(0.0133112 0 0)
(0.0134453 0 0)
(0.0135277 0 0)
(0.0136307 0 0)
(0.0138013 0 0)
(0.0139075 0 0)
(0.0140391 0 0)
(0.0141654 0 0)
(0.0142743 0 0)
(0.014363 0 0)
(0.0144705 0 0)
(0.0146055 0 0)
(0.0147057 0 0)
(0.0148061 0 0)
(0.0149195 0 0)
(0.0149972 0 0)
(0.0150766 0 0)
(0.0151553 0 0)
(0.0152371 0 0)
(0.0153173 0 0)
(0.0154084 0 0)
(0.0155019 0 0)
(0.0155929 0 0)
(0.015682 0 0)
(0.0157646 0 0)
(0.0158548 0 0)
(0.0159421 0 0)
(0.0160294 0 0)
(0.016136 0 0)
(0.016252 0 0)
(0.0163229 0 0)
(0.0163891 0 0)
(0.0164953 0 0)
(0.0165634 0 0)
(0.0166112 0 0)
(0.0166857 0 0)
(0.0167411 0 0)
(0.01682 0 0)
(0.0169051 0 0)
(0.0169834 0 0)
(0.0170886 0 0)
(0.0171373 0 0)
(0.0172226 0 0)
(0.0173001 0 0)
(0.0173972 0 0)
(0.0174619 0 0)
(0.0175134 0 0)
(0.0175724 0 0)
(0.0176382 0 0)
(0.0176853 0 0)
(0.0177651 0 0)
(0.0178147 0 0)
(0.017872 0 0)
(0.0179267 0 0)
(0.0179557 0 0)
(0.0180045 0 0)
(0.0180418 0 0)
(0.0180907 0 0)
(0.0181657 0 0)
(0.0182453 0 0)
(0.0182885 0 0)
(0.0183608 0 0)
(0.0183922 0 0)
(0.018389 0 0)
(0.0184637 0 0)
(0.0185318 0 0)
(0.0185961 0 0)
(0.0186542 0 0)
(0.018714 0 0)
(0.0187709 0 0)
(0.0188178 0 0)
(0.0188622 0 0)
(0.0189184 0 0)
(0.018964 0 0)
(0.019001 0 0)
(0.0190334 0 0)
(0.0190274 0 0)
(0.0190206 0 0)
(0.0190391 0 0)
)
;

boundaryField
{
    inlet
    {
        type            fixedValue;
        value           uniform (0.005 0 0);
    }
    outlet
    {
        type            zeroGradient;
    }
    yzfaces
    {
        type            empty;
    }
}


// ************************************************************************* //
