/*--------------------------------*- C++ -*----------------------------------*\
| =========                 |                                                 |
| \\      /  F ield         | foam-extend: Open Source CFD                    |
|  \\    /   O peration     | Version:     5.0                                |
|   \\  /    A nd           | Web:         http://www.foam-extend.org         |
|    \\/     M anipulation  |                                                 |
\*---------------------------------------------------------------------------*/
FoamFile
{
    version     2.0;
    format      ascii;
    class       volVectorField;
    location    "10";
    object      U.water;
}
// * * * * * * * * * * * * * * * * * * * * * * * * * * * * * * * * * * * * * //

dimensions      [0 1 -1 0 0 0 0];

internalField   nonuniform List<vector> 
100
(
(9.73748e-06 0 0)
(2.95128e-05 0 0)
(2.81954e-05 0 0)
(3.22325e-05 0 0)
(5.73778e-05 0 0)
(8.26436e-05 0 0)
(8.92808e-05 0 0)
(8.54604e-05 0 0)
(0.00011151 0 0)
(0.000133985 0 0)
(0.000131452 0 0)
(0.000141346 0 0)
(0.000161947 0 0)
(0.000162615 0 0)
(0.000172898 0 0)
(0.000205659 0 0)
(0.000225437 0 0)
(0.000229378 0 0)
(0.000257694 0 0)
(0.000276811 0 0)
(0.000267621 0 0)
(0.000267985 0 0)
(0.000284007 0 0)
(0.000314273 0 0)
(0.00032154 0 0)
(0.000336977 0 0)
(0.000361245 0 0)
(0.000371405 0 0)
(0.000383799 0 0)
(0.000398038 0 0)
(0.000414774 0 0)
(0.000425004 0 0)
(0.000438443 0 0)
(0.000454753 0 0)
(0.000468968 0 0)
(0.000483383 0 0)
(0.00049328 0 0)
(0.000506419 0 0)
(0.000520298 0 0)
(0.000532476 0 0)
(0.000545456 0 0)
(0.000554062 0 0)
(0.000564894 0 0)
(0.000575848 0 0)
(0.000588269 0 0)
(0.000602611 0 0)
(0.000617624 0 0)
(0.000628711 0 0)
(0.000640248 0 0)
(0.000654462 0 0)
(0.000669603 0 0)
(0.000683492 0 0)
(0.000688168 0 0)
(0.000699627 0 0)
(0.000720442 0 0)
(0.000737449 0 0)
(0.000751801 0 0)
(0.000755297 0 0)
(0.000760187 0 0)
(0.000777876 0 0)
(0.000787899 0 0)
(0.000805114 0 0)
(0.000818478 0 0)
(0.000826749 0 0)
(0.000838196 0 0)
(0.000851224 0 0)
(0.000868511 0 0)
(0.000876929 0 0)
(0.000889553 0 0)
(0.000902912 0 0)
(0.000911897 0 0)
(0.000922449 0 0)
(0.000932188 0 0)
(0.000941311 0 0)
(0.000959316 0 0)
(0.000969344 0 0)
(0.000977528 0 0)
(0.000994213 0 0)
(0.00100251 0 0)
(0.00100493 0 0)
(0.00102116 0 0)
(0.00103887 0 0)
(0.00104912 0 0)
(0.00106078 0 0)
(0.00106313 0 0)
(0.00107561 0 0)
(0.00109226 0 0)
(0.00110083 0 0)
(0.00111298 0 0)
(0.00112531 0 0)
(0.00114102 0 0)
(0.00115302 0 0)
(0.00115968 0 0)
(0.00117056 0 0)
(0.00118325 0 0)
(0.00119285 0 0)
(0.00120712 0 0)
(0.0012167 0 0)
(0.00122288 0 0)
(0.00123947 0 0)
)
;

boundaryField
{
    inlet
    {
        type            fixedValue;
        value           uniform (0 0 0);
    }
    outlet
    {
        type            zeroGradient;
    }
    yzfaces
    {
        type            empty;
    }
}


// ************************************************************************* //
