/*--------------------------------*- C++ -*----------------------------------*\
| =========                 |                                                 |
| \\      /  F ield         | foam-extend: Open Source CFD                    |
|  \\    /   O peration     | Version:     5.0                                |
|   \\  /    A nd           | Web:         http://www.foam-extend.org         |
|    \\/     M anipulation  |                                                 |
\*---------------------------------------------------------------------------*/
FoamFile
{
    version     2.0;
    format      ascii;
    class       surfaceScalarField;
    location    "1";
    object      phi;
}
// * * * * * * * * * * * * * * * * * * * * * * * * * * * * * * * * * * * * * //

dimensions      [0 3 -1 0 0 0 0];

internalField   nonuniform List<scalar> 
99
(
1.22453e-06
1.22632e-06
1.22752e-06
1.22197e-06
1.22086e-06
1.21961e-06
1.23388e-06
1.23447e-06
1.21456e-06
1.22753e-06
1.21559e-06
1.22293e-06
1.20707e-06
1.2517e-06
1.2219e-06
1.2219e-06
1.2368e-06
1.2815e-06
1.2815e-06
1.2368e-06
1.2815e-06
1.2815e-06
1.2219e-06
1.2666e-06
1.2517e-06
1.2517e-06
1.2666e-06
1.2666e-06
1.2815e-06
1.2666e-06
1.2368e-06
1.2368e-06
1.2517e-06
1.2666e-06
1.2368e-06
1.2517e-06
1.2219e-06
1.2517e-06
1.2666e-06
1.2517e-06
1.2368e-06
1.2368e-06
1.2368e-06
1.20699e-06
1.17719e-06
1.20699e-06
1.19209e-06
1.16229e-06
1.19209e-06
1.19209e-06
1.20699e-06
1.2219e-06
1.16229e-06
1.16229e-06
1.14739e-06
1.16229e-06
1.17719e-06
1.19209e-06
1.20699e-06
1.17719e-06
1.20699e-06
1.2219e-06
1.20699e-06
1.20699e-06
1.2219e-06
1.19209e-06
1.17719e-06
1.16229e-06
1.17719e-06
1.19209e-06
1.13249e-06
1.16229e-06
1.17719e-06
1.19209e-06
1.14739e-06
1.17719e-06
1.17719e-06
1.17719e-06
1.16229e-06
1.17719e-06
1.16229e-06
1.17719e-06
1.20699e-06
1.16229e-06
1.17719e-06
1.14739e-06
1.14739e-06
1.17719e-06
1.20699e-06
1.17719e-06
1.17719e-06
1.16229e-06
1.14739e-06
1.20699e-06
1.17719e-06
1.16229e-06
1.16229e-06
1.16229e-06
1.16229e-06
)
;

boundaryField
{
    inlet
    {
        type            calculated;
        value           uniform -1.225e-06;
    }
    outlet
    {
        type            calculated;
        value           uniform 1.19209e-06;
    }
    yzfaces
    {
        type            empty;
    }
}


// ************************************************************************* //
