/*--------------------------------*- C++ -*----------------------------------*\
| =========                 |                                                 |
| \\      /  F ield         | foam-extend: Open Source CFD                    |
|  \\    /   O peration     | Version:     5.0                                |
|   \\  /    A nd           | Web:         http://www.foam-extend.org         |
|    \\/     M anipulation  |                                                 |
\*---------------------------------------------------------------------------*/
FoamFile
{
    version     2.0;
    format      ascii;
    class       surfaceScalarField;
    location    "2";
    object      phi;
}
// * * * * * * * * * * * * * * * * * * * * * * * * * * * * * * * * * * * * * //

dimensions      [0 3 -1 0 0 0 0];

internalField   nonuniform List<scalar> 
99
(
1.22142e-06
1.22372e-06
1.21999e-06
1.21869e-06
1.2156e-06
1.22062e-06
1.21735e-06
1.21616e-06
1.21513e-06
1.21427e-06
1.21349e-06
1.2106e-06
1.2121e-06
1.20614e-06
1.2155e-06
1.20846e-06
1.21465e-06
1.20937e-06
1.21343e-06
1.20936e-06
1.20875e-06
1.21259e-06
1.21186e-06
1.21078e-06
1.21457e-06
1.21234e-06
1.21118e-06
1.21259e-06
1.21003e-06
1.21257e-06
1.21191e-06
1.21219e-06
1.21305e-06
1.2136e-06
1.21205e-06
1.21164e-06
1.20996e-06
1.21353e-06
1.21028e-06
1.21393e-06
1.21309e-06
1.21324e-06
1.21521e-06
1.21373e-06
1.21487e-06
1.21498e-06
1.21475e-06
1.21307e-06
1.21524e-06
1.21333e-06
1.21448e-06
1.21529e-06
1.21563e-06
1.2155e-06
1.21591e-06
1.2163e-06
1.21444e-06
1.21468e-06
1.21514e-06
1.21444e-06
1.21514e-06
1.21444e-06
1.21444e-06
1.21421e-06
1.21421e-06
1.21444e-06
1.21421e-06
1.21444e-06
1.21444e-06
1.21444e-06
1.21375e-06
1.21375e-06
1.21398e-06
1.21444e-06
1.21398e-06
1.21468e-06
1.21444e-06
1.21444e-06
1.21398e-06
1.21351e-06
1.21305e-06
1.21258e-06
1.21305e-06
1.21375e-06
1.21421e-06
1.21375e-06
1.21491e-06
1.21468e-06
1.21468e-06
1.21468e-06
1.21538e-06
1.21514e-06
1.21538e-06
1.21514e-06
1.21561e-06
1.21607e-06
1.21584e-06
1.21584e-06
1.21654e-06
)
;

boundaryField
{
    inlet
    {
        type            calculated;
        value           uniform -1.225e-06;
    }
    outlet
    {
        type            calculated;
        value           uniform 1.21631e-06;
    }
    yzfaces
    {
        type            empty;
    }
}


// ************************************************************************* //
