/*--------------------------------*- C++ -*----------------------------------*\
| =========                 |                                                 |
| \\      /  F ield         | foam-extend: Open Source CFD                    |
|  \\    /   O peration     | Version:     5.0                                |
|   \\  /    A nd           | Web:         http://www.foam-extend.org         |
|    \\/     M anipulation  |                                                 |
\*---------------------------------------------------------------------------*/
FoamFile
{
    version     2.0;
    format      ascii;
    class       volVectorField;
    location    "2";
    object      U.water;
}
// * * * * * * * * * * * * * * * * * * * * * * * * * * * * * * * * * * * * * //

dimensions      [0 1 -1 0 0 0 0];

internalField   nonuniform List<vector> 
100
(
(1.33344e-05 0 0)
(6.17431e-05 0 0)
(0.000126259 0 0)
(0.000178965 0 0)
(0.000222605 0 0)
(0.000286506 0 0)
(0.000349268 0 0)
(0.000397122 0 0)
(0.000456039 0 0)
(0.000515808 0 0)
(0.0005784 0 0)
(0.00063792 0 0)
(0.000700182 0 0)
(0.000750084 0 0)
(0.000815676 0 0)
(0.000878219 0 0)
(0.000929516 0 0)
(0.000991386 0 0)
(0.00104914 0 0)
(0.00110758 0 0)
(0.00115649 0 0)
(0.00122124 0 0)
(0.00128212 0 0)
(0.00133358 0 0)
(0.0013956 0 0)
(0.00145585 0 0)
(0.00150952 0 0)
(0.00157073 0 0)
(0.00162813 0 0)
(0.0016904 0 0)
(0.0017548 0 0)
(0.00181313 0 0)
(0.00187907 0 0)
(0.0019469 0 0)
(0.0020096 0 0)
(0.00207363 0 0)
(0.00214132 0 0)
(0.00221801 0 0)
(0.00229331 0 0)
(0.00237169 0 0)
(0.00245982 0 0)
(0.00254696 0 0)
(0.00264669 0 0)
(0.00275201 0 0)
(0.00286683 0 0)
(0.00300065 0 0)
(0.00315062 0 0)
(0.0033228 0 0)
(0.00353577 0 0)
(0.00379548 0 0)
(0.0041061 0 0)
(0.00445846 0 0)
(0.00476393 0 0)
(0.00492124 0 0)
(0.00495953 0 0)
(0.00496367 0 0)
(0.0049607 0 0)
(0.00495739 0 0)
(0.00495882 0 0)
(0.00495834 0 0)
(0.00495834 0 0)
(0.00495834 0 0)
(0.00495692 0 0)
(0.00495644 0 0)
(0.00495597 0 0)
(0.00495644 0 0)
(0.00495644 0 0)
(0.00495644 0 0)
(0.00495692 0 0)
(0.00495692 0 0)
(0.00495549 0 0)
(0.00495407 0 0)
(0.00495454 0 0)
(0.00495597 0 0)
(0.00495597 0 0)
(0.00495644 0 0)
(0.00495739 0 0)
(0.00495692 0 0)
(0.00495597 0 0)
(0.00495407 0 0)
(0.00495217 0 0)
(0.00495026 0 0)
(0.00495026 0 0)
(0.00495264 0 0)
(0.00495502 0 0)
(0.00495502 0 0)
(0.00495644 0 0)
(0.00495834 0 0)
(0.00495787 0 0)
(0.00495787 0 0)
(0.00495929 0 0)
(0.00496024 0 0)
(0.00496024 0 0)
(0.00496024 0 0)
(0.00496072 0 0)
(0.00496262 0 0)
(0.00496309 0 0)
(0.00496262 0 0)
(0.00496404 0 0)
(0.00496499 0 0)
)
;

boundaryField
{
    inlet
    {
        type            fixedValue;
        value           uniform (0 0 0);
    }
    outlet
    {
        type            zeroGradient;
    }
    yzfaces
    {
        type            empty;
    }
}


// ************************************************************************* //
