/*--------------------------------*- C++ -*----------------------------------*\
| =========                 |                                                 |
| \\      /  F ield         | foam-extend: Open Source CFD                    |
|  \\    /   O peration     | Version:     5.0                                |
|   \\  /    A nd           | Web:         http://www.foam-extend.org         |
|    \\/     M anipulation  |                                                 |
\*---------------------------------------------------------------------------*/
FoamFile
{
    version     2.0;
    format      ascii;
    class       volScalarField;
    location    "5000";
    object      alpha.gas;
}
// * * * * * * * * * * * * * * * * * * * * * * * * * * * * * * * * * * * * * //

dimensions      [0 0 0 0 0 0 0];

internalField   nonuniform List<scalar> 
1500
(
9.8578e-07
1.59439e-06
2.16175e-06
2.70993e-06
3.24709e-06
3.77699e-06
4.30172e-06
4.82256e-06
5.34039e-06
5.85579e-06
6.3692e-06
6.88094e-06
7.39127e-06
7.90039e-06
8.40845e-06
8.91558e-06
9.42189e-06
9.92748e-06
1.04324e-05
1.09367e-05
1.14405e-05
1.19439e-05
1.24467e-05
1.29492e-05
1.34512e-05
1.3953e-05
1.44544e-05
1.49555e-05
1.54563e-05
1.59568e-05
1.64572e-05
1.69572e-05
1.74571e-05
1.79567e-05
1.84562e-05
1.89555e-05
1.94546e-05
1.99535e-05
2.04523e-05
2.0951e-05
2.14495e-05
2.19478e-05
2.24461e-05
2.29442e-05
2.34422e-05
2.394e-05
2.44378e-05
2.49355e-05
2.54331e-05
2.59305e-05
2.64279e-05
2.69252e-05
2.74224e-05
2.79196e-05
2.84166e-05
2.89136e-05
2.94105e-05
2.99073e-05
3.04041e-05
3.09008e-05
3.13975e-05
3.1894e-05
3.23905e-05
3.2887e-05
3.33834e-05
3.38798e-05
3.4376e-05
3.48723e-05
3.53685e-05
3.58646e-05
3.63607e-05
3.68568e-05
3.73528e-05
3.78488e-05
3.83447e-05
3.88406e-05
3.93364e-05
3.98322e-05
4.0328e-05
4.08237e-05
4.13194e-05
4.18151e-05
4.23107e-05
4.28063e-05
4.33018e-05
4.37974e-05
4.42929e-05
4.47883e-05
4.52838e-05
4.57792e-05
4.62745e-05
4.67699e-05
4.72652e-05
4.77605e-05
4.82558e-05
4.8751e-05
4.92463e-05
4.97415e-05
5.02366e-05
5.07318e-05
5.12269e-05
5.1722e-05
5.22171e-05
5.27121e-05
5.32072e-05
5.37022e-05
5.41972e-05
5.46922e-05
5.51871e-05
5.56821e-05
5.6177e-05
5.66719e-05
5.71668e-05
5.76617e-05
5.81565e-05
5.86514e-05
5.91462e-05
5.9641e-05
6.01358e-05
6.06305e-05
6.11253e-05
6.162e-05
6.21147e-05
6.26095e-05
6.31041e-05
6.35988e-05
6.40935e-05
6.45881e-05
6.50828e-05
6.55774e-05
6.6072e-05
6.65666e-05
6.70612e-05
6.75558e-05
6.80503e-05
6.85449e-05
6.90394e-05
6.9534e-05
7.00285e-05
7.0523e-05
7.10175e-05
7.1512e-05
7.20064e-05
7.25009e-05
7.29953e-05
7.34898e-05
7.39842e-05
7.44786e-05
7.4973e-05
7.54674e-05
7.59618e-05
7.64562e-05
7.69506e-05
7.74449e-05
7.79393e-05
7.84336e-05
7.8928e-05
7.94223e-05
7.99166e-05
8.04109e-05
8.09052e-05
8.13995e-05
8.18938e-05
8.23881e-05
8.28824e-05
8.33766e-05
8.38709e-05
8.43651e-05
8.48594e-05
8.53536e-05
8.58478e-05
8.63421e-05
8.68363e-05
8.73305e-05
8.78247e-05
8.83189e-05
8.88131e-05
8.93072e-05
8.98014e-05
9.02956e-05
9.07898e-05
9.12839e-05
9.17781e-05
9.22722e-05
9.27663e-05
9.32605e-05
9.37546e-05
9.42487e-05
9.47428e-05
9.5237e-05
9.57311e-05
9.62252e-05
9.67193e-05
9.72133e-05
9.77074e-05
9.82015e-05
9.86956e-05
9.91897e-05
9.96837e-05
0.000100178
0.000100672
0.000101166
0.00010166
0.000102154
0.000102648
0.000103142
0.000103636
0.00010413
0.000104624
0.000105118
0.000105612
0.000106106
0.0001066
0.000107094
0.000107588
0.000108082
0.000108576
0.00010907
0.000109564
0.000110058
0.000110552
0.000111046
0.00011154
0.000112034
0.000112528
0.000113022
0.000113516
0.00011401
0.000114504
0.000114998
0.000115492
0.000115986
0.00011648
0.000116974
0.000117467
0.000117961
0.000118455
0.000118949
0.000119443
0.000119937
0.000120431
0.000120926
0.000121455
0.00012341
0.000183905
0.00159155
0.00415865
0.00669463
0.0091837
0.0116255
0.0140209
0.0163709
0.0186765
0.0209388
0.0231589
0.0253378
0.0274765
0.0295761
0.0316373
0.0336613
0.0356487
0.0376007
0.0395179
0.0414011
0.0432513
0.0450691
0.0468554
0.0486108
0.050336
0.0520317
0.0536987
0.0553375
0.0569488
0.0585332
0.0600913
0.0616236
0.0631308
0.0646134
0.0660719
0.0675068
0.0689187
0.070308
0.0716752
0.0730208
0.0743453
0.075649
0.0769324
0.078196
0.0794401
0.0806651
0.0818714
0.0830595
0.0842296
0.0853821
0.0865174
0.0876359
0.0887378
0.0898234
0.0908932
0.0919474
0.0929863
0.0940101
0.0950193
0.096014
0.0969946
0.0979613
0.0989144
0.099854
0.100781
0.101694
0.102595
0.103484
0.10436
0.105225
0.106078
0.106919
0.107749
0.108567
0.109375
0.110172
0.110959
0.111735
0.112501
0.113257
0.114003
0.11474
0.115467
0.116185
0.116893
0.117593
0.118283
0.118965
0.119639
0.120304
0.12096
0.121609
0.122249
0.122882
0.123507
0.124124
0.124734
0.125336
0.125931
0.126519
0.1271
0.127674
0.128242
0.128802
0.129356
0.129903
0.130444
0.130979
0.131507
0.13203
0.132546
0.133057
0.133561
0.13406
0.134553
0.135041
0.135523
0.136
0.136471
0.136938
0.137399
0.137855
0.138305
0.138751
0.139193
0.139629
0.14006
0.140487
0.14091
0.141327
0.141741
0.14215
0.142554
0.142954
0.143351
0.143742
0.14413
0.144514
0.144894
0.14527
0.145642
0.14601
0.146374
0.146735
0.147092
0.147445
0.147795
0.148141
0.148484
0.148823
0.149159
0.149491
0.149821
0.150147
0.150469
0.150789
0.151106
0.151419
0.151729
0.152037
0.152341
0.152642
0.152941
0.153237
0.15353
0.15382
0.154107
0.154392
0.154673
0.154953
0.155229
0.155503
0.155775
0.156044
0.156311
0.156575
0.156836
0.157095
0.157352
0.157607
0.157859
0.158109
0.158357
0.158602
0.158845
0.159086
0.159325
0.159562
0.159797
0.160029
0.16026
0.160488
0.160715
0.160939
0.161162
0.161383
0.161601
0.161818
0.162033
0.162246
0.162457
0.162667
0.162875
0.163081
0.163285
0.163487
0.163688
0.163887
0.164084
0.16428
0.164474
0.164667
0.164858
0.165047
0.165235
0.165421
0.165606
0.165789
0.165971
0.166151
0.16633
0.166507
0.166683
0.166857
0.167031
0.167202
0.167373
0.167542
0.167709
0.167875
0.16804
0.168204
0.168367
0.168528
0.168688
0.168846
0.169004
0.16916
0.169315
0.169469
0.169621
0.169773
0.169923
0.170072
0.17022
0.170367
0.170513
0.170657
0.170801
0.170944
0.171085
0.171225
0.171365
0.171503
0.17164
0.171777
0.171912
0.172046
0.172179
0.172312
0.172443
0.172573
0.172703
0.172831
0.172959
0.173086
0.173211
0.173336
0.17346
0.173583
0.173705
0.173827
0.173947
0.174067
0.174186
0.174304
0.174421
0.174537
0.174653
0.174767
0.174881
0.174994
0.175107
0.175218
0.175329
0.175439
0.175548
0.175657
0.175765
0.175872
0.175978
0.176084
0.176189
0.176293
0.176396
0.176499
0.176601
0.176703
0.176804
0.176904
0.177003
0.177102
0.1772
0.177298
0.177395
0.177491
0.177587
0.177682
0.177776
0.17787
0.177963
0.178056
0.178148
0.178239
0.17833
0.17842
0.17851
0.178599
0.178688
0.178776
0.178863
0.17895
0.179036
0.179122
0.179207
0.179292
0.179376
0.17946
0.179543
0.179626
0.179708
0.17979
0.179871
0.179952
0.180032
0.180112
0.180191
0.18027
0.180348
0.180426
0.180503
0.18058
0.180657
0.180733
0.180808
0.180883
0.180958
0.181032
0.181106
0.18118
0.181253
0.181325
0.181397
0.181469
0.18154
0.181611
0.181682
0.181752
0.181821
0.181891
0.181959
0.182028
0.182096
0.182164
0.182231
0.182298
0.182365
0.182431
0.182497
0.182562
0.182628
0.182692
0.182757
0.182821
0.182885
0.182948
0.183011
0.183074
0.183136
0.183198
0.18326
0.183321
0.183382
0.183443
0.183503
0.183563
0.183623
0.183683
0.183742
0.183801
0.183859
0.183917
0.183975
0.184033
0.18409
0.184147
0.184204
0.18426
0.184316
0.184372
0.184428
0.184483
0.184538
0.184593
0.184647
0.184702
0.184755
0.184809
0.184863
0.184916
0.184969
0.185021
0.185073
0.185126
0.185177
0.185229
0.18528
0.185331
0.185382
0.185433
0.185483
0.185533
0.185583
0.185633
0.185682
0.185731
0.18578
0.185829
0.185878
0.185926
0.185974
0.186022
0.186069
0.186117
0.186164
0.186211
0.186257
0.186304
0.18635
0.186396
0.186442
0.186488
0.186533
0.186579
0.186624
0.186669
0.186713
0.186758
0.186802
0.186846
0.18689
0.186934
0.186977
0.18702
0.187064
0.187107
0.187149
0.187192
0.187234
0.187276
0.187319
0.18736
0.187402
0.187444
0.187485
0.187526
0.187567
0.187608
0.187649
0.187689
0.187729
0.187769
0.187809
0.187849
0.187889
0.187928
0.187968
0.188007
0.188046
0.188085
0.188124
0.188162
0.188201
0.188239
0.188277
0.188315
0.188353
0.18839
0.188428
0.188465
0.188503
0.18854
0.188577
0.188613
0.18865
0.188687
0.188723
0.188759
0.188795
0.188831
0.188867
0.188903
0.188939
0.188974
0.189009
0.189045
0.18908
0.189115
0.189149
0.189184
0.189219
0.189253
0.189287
0.189322
0.189356
0.18939
0.189423
0.189457
0.189491
0.189524
0.189558
0.189591
0.189624
0.189657
0.18969
0.189723
0.189755
0.189788
0.18982
0.189853
0.189885
0.189917
0.189949
0.189981
0.190013
0.190045
0.190076
0.190108
0.190139
0.190171
0.190202
0.190233
0.190264
0.190295
0.190326
0.190356
0.190387
0.190417
0.190448
0.190478
0.190508
0.190539
0.190569
0.190599
0.190628
0.190658
0.190688
0.190717
0.190747
0.190776
0.190806
0.190835
0.190864
0.190893
0.190922
0.190951
0.19098
0.191009
0.191037
0.191066
0.191094
0.191123
0.191151
0.191179
0.191207
0.191235
0.191263
0.191291
0.191319
0.191347
0.191374
0.191402
0.191429
0.191457
0.191484
0.191512
0.191539
0.191566
0.191593
0.19162
0.191647
0.191674
0.1917
0.191727
0.191754
0.19178
0.191807
0.191833
0.19186
0.191886
0.191912
0.191938
0.191964
0.19199
0.192016
0.192042
0.192068
0.192094
0.192119
0.192145
0.192171
0.192196
0.192221
0.192247
0.192272
0.192297
0.192322
0.192348
0.192373
0.192398
0.192423
0.192447
0.192472
0.192497
0.192522
0.192546
0.192571
0.192595
0.19262
0.192644
0.192668
0.192693
0.192717
0.192741
0.192765
0.192789
0.192813
0.192837
0.192861
0.192885
0.192909
0.192932
0.192956
0.19298
0.193003
0.193027
0.19305
0.193074
0.193097
0.19312
0.193144
0.193167
0.19319
0.193213
0.193236
0.193259
0.193282
0.193305
0.193328
0.19335
0.193373
0.193396
0.193419
0.193441
0.193464
0.193486
0.193509
0.193531
0.193553
0.193576
0.193598
0.19362
0.193642
0.193665
0.193687
0.193709
0.193731
0.193753
0.193775
0.193796
0.193818
0.19384
0.193862
0.193883
0.193905
0.193927
0.193948
0.19397
0.193991
0.194013
0.194034
0.194055
0.194077
0.194098
0.194119
0.19414
0.194161
0.194182
0.194204
0.194225
0.194246
0.194266
0.194287
0.194308
0.194329
0.19435
0.19437
0.194391
0.194412
0.194432
0.194453
0.194473
0.194494
0.194514
0.194535
0.194555
0.194576
0.194596
0.194616
0.194636
0.194657
0.194677
0.194697
0.194717
0.194737
0.194757
0.194777
0.194797
0.194817
0.194836
0.194856
0.194876
0.194896
0.194916
0.194935
0.194955
0.194974
0.194994
0.195013
0.195033
0.195052
0.195072
0.195091
0.195111
0.19513
0.195149
0.195168
0.195188
0.195207
0.195226
0.195245
0.195264
0.195283
0.195302
0.195321
0.19534
0.195359
0.195378
0.195397
0.195415
0.195434
0.195453
0.195472
0.19549
0.195509
0.195528
0.195546
0.195565
0.195583
0.195602
0.19562
0.195638
0.195657
0.195675
0.195693
0.195712
0.19573
0.195748
0.195766
0.195784
0.195803
0.195821
0.195839
0.195857
0.195875
0.195893
0.19591
0.195928
0.195946
0.195964
0.195982
0.196
0.196017
0.196035
0.196053
0.19607
0.196088
0.196105
0.196123
0.19614
0.196158
0.196175
0.196193
0.19621
0.196227
0.196245
0.196262
0.196279
0.196296
0.196314
0.196331
0.196348
0.196365
0.196382
0.196399
0.196416
0.196433
0.19645
0.196467
0.196484
0.196501
0.196517
0.196534
0.196551
0.196568
0.196584
0.196601
0.196618
0.196634
0.196651
0.196667
0.196684
0.1967
0.196717
0.196733
0.196749
0.196766
0.196782
0.196798
0.196815
0.196831
0.196847
0.196863
0.196879
0.196895
0.196911
0.196928
0.196944
0.196959
0.196975
0.196991
0.197007
0.197023
0.197039
0.197055
0.19707
0.197086
0.197102
0.197117
0.197133
0.197149
0.197164
0.19718
0.197195
0.197211
0.197226
0.197242
0.197257
0.197272
0.197288
0.197303
0.197318
0.197333
0.197349
0.197364
0.197379
0.197394
0.197409
0.197424
0.197439
0.197454
0.197469
0.197484
0.197499
0.197513
0.197528
0.197543
0.197558
0.197572
0.197587
0.197602
0.197616
0.197631
0.197645
0.19766
0.197674
0.197689
0.197703
0.197718
0.197732
0.197746
0.19776
0.197775
0.197789
0.197803
0.197817
0.197831
0.197845
0.197859
0.197873
0.197887
0.197901
0.197915
0.197929
0.197943
0.197957
0.197971
0.197984
0.197998
0.198012
0.198025
0.198039
0.198052
0.198066
0.198079
0.198093
0.198106
0.19812
0.198133
0.198146
0.19816
0.198173
0.198186
0.198199
0.198212
0.198226
0.198239
0.198252
0.198265
0.198278
0.198291
0.198303
0.198316
0.198329
0.198342
0.198355
0.198367
0.19838
0.198393
0.198405
0.198418
0.19843
0.198443
0.198455
0.198468
0.19848
0.198492
0.198505
0.198517
0.198529
0.198541
0.198553
0.198566
0.198578
0.19859
0.198602
0.198614
0.198626
0.198637
0.198649
0.198661
0.198673
0.198685
0.198696
0.198708
0.198719
0.198731
0.198743
0.198754
0.198765
0.198777
0.198788
0.1988
0.198811
0.198822
0.198833
0.198844
0.198856
0.198867
0.198878
0.198889
0.1989
0.19891
0.198921
0.198932
0.198943
0.198954
0.198964
0.198975
0.198986
0.198996
0.199007
0.199017
0.199028
0.199038
0.199048
0.199059
0.199069
0.199079
0.199089
0.199099
0.19911
0.19912
0.19913
0.199139
0.199149
0.199159
0.199169
0.199179
0.199189
0.199198
0.199208
0.199217
0.199227
0.199236
0.199246
0.199255
0.199265
0.199274
0.199283
0.199292
0.199302
0.199311
0.19932
0.199329
0.199338
0.199347
0.199355
0.199364
0.199373
0.199382
0.19939
0.199399
0.199408
0.199416
0.199425
0.199433
0.199441
0.19945
0.199458
0.199466
0.199474
0.199482
0.19949
0.199498
0.199506
0.199514
0.199522
0.19953
0.199538
0.199545
0.199553
0.199561
0.199568
0.199576
0.199583
0.19959
0.199598
0.199605
0.199612
0.199619
0.199626
0.199633
0.19964
0.199647
0.199654
0.199661
0.199668
0.199674
0.199681
0.199688
0.199694
0.199701
0.199707
0.199713
0.19972
0.199726
0.199732
0.199738
0.199744
0.19975
0.199756
0.199762
0.199768
0.199773
0.199779
0.199785
0.19979
0.199796
0.199801
0.199806
0.199812
0.199817
0.199822
0.199826
0.199831
0.199836
0.19984
0.199844
0.199849
0.199853
0.199857
0.199861
0.199865
0.199868
0.199872
0.199875
0.199879
0.199882
0.199886
0.199889
0.199892
0.199895
0.199898
0.199901
0.199903
0.199906
0.199909
0.199911
0.199914
0.199916
0.199919
0.199921
0.199923
0.199925
0.199928
0.19993
0.199932
0.199934
0.199936
0.199937
0.199939
0.199941
0.199943
0.199944
0.199946
0.199948
0.199949
0.199951
0.199952
0.199954
0.199955
0.199956
0.199958
0.199959
0.19996
0.199961
0.199962
0.199964
0.199965
0.199966
0.199967
0.199968
0.199969
0.19997
0.199971
0.199971
0.199972
0.199973
0.199974
0.199975
0.199976
0.199976
0.199977
0.199978
0.199978
0.199979
0.19998
0.19998
0.199981
0.199982
0.199982
0.199983
0.199983
0.199984
0.199984
0.199985
0.199985
0.199986
0.199986
0.199987
0.199987
0.199987
0.199988
0.199988
0.199989
0.199989
0.199989
0.19999
0.19999
0.19999
0.199991
0.199991
0.199991
0.199991
0.199992
0.199992
0.199992
0.199992
0.199993
0.199993
0.199993
0.199993
0.199994
0.199994
0.199994
0.199994
0.199994
0.199994
0.199995
0.199995
0.199995
0.199995
0.199995
0.199995
0.199995
0.199996
0.199996
0.199996
0.199996
0.199996
0.199996
0.199996
0.199996
0.199996
0.199996
0.199997
0.199997
0.199997
0.199997
0.199997
0.199997
0.199997
0.199997
0.199997
0.199997
0.199997
0.199997
0.199997
0.199997
0.199997
0.199997
0.199997
0.199997
0.199997
0.199997
)
;

boundaryField
{
    bottom
    {
        type            fixedValue;
        value           uniform 0.1;
    }
    top
    {
        type            zeroGradient;
    }
    walls
    {
        type            zeroGradient;
    }
}


// ************************************************************************* //
