/*--------------------------------*- C++ -*----------------------------------*\
| =========                 |                                                 |
| \\      /  F ield         | foam-extend: Open Source CFD                    |
|  \\    /   O peration     | Version:     5.0                                |
|   \\  /    A nd           | Web:         http://www.foam-extend.org         |
|    \\/     M anipulation  |                                                 |
\*---------------------------------------------------------------------------*/
FoamFile
{
    version     2.0;
    format      ascii;
    class       volScalarField;
    location    "5000";
    object      alpha.water;
}
// * * * * * * * * * * * * * * * * * * * * * * * * * * * * * * * * * * * * * //

dimensions      [0 0 0 0 0 0 0];

internalField   nonuniform List<scalar> 
1500
(
0.199999
0.199998
0.199998
0.199997
0.199997
0.199996
0.199996
0.199995
0.199995
0.199994
0.199994
0.199993
0.199993
0.199992
0.199992
0.199991
0.199991
0.19999
0.19999
0.199989
0.199989
0.199988
0.199988
0.199987
0.199987
0.199986
0.199986
0.199985
0.199985
0.199984
0.199984
0.199983
0.199983
0.199982
0.199982
0.199981
0.199981
0.19998
0.19998
0.199979
0.199979
0.199978
0.199978
0.199977
0.199977
0.199976
0.199976
0.199975
0.199975
0.199974
0.199974
0.199973
0.199973
0.199972
0.199972
0.199971
0.199971
0.19997
0.19997
0.199969
0.199969
0.199968
0.199968
0.199967
0.199967
0.199966
0.199966
0.199965
0.199965
0.199964
0.199964
0.199963
0.199963
0.199962
0.199962
0.199961
0.199961
0.19996
0.19996
0.199959
0.199959
0.199958
0.199958
0.199957
0.199957
0.199956
0.199956
0.199955
0.199955
0.199954
0.199954
0.199953
0.199953
0.199952
0.199952
0.199951
0.199951
0.19995
0.19995
0.199949
0.199949
0.199948
0.199948
0.199947
0.199947
0.199946
0.199946
0.199945
0.199945
0.199944
0.199944
0.199943
0.199943
0.199942
0.199942
0.199941
0.199941
0.19994
0.19994
0.199939
0.199939
0.199938
0.199938
0.199937
0.199937
0.199936
0.199936
0.199935
0.199935
0.199934
0.199934
0.199933
0.199933
0.199932
0.199932
0.199931
0.199931
0.19993
0.19993
0.199929
0.199929
0.199928
0.199928
0.199927
0.199927
0.199927
0.199926
0.199926
0.199925
0.199925
0.199924
0.199924
0.199923
0.199923
0.199922
0.199922
0.199921
0.199921
0.19992
0.19992
0.199919
0.199919
0.199918
0.199918
0.199917
0.199917
0.199916
0.199916
0.199915
0.199915
0.199914
0.199914
0.199913
0.199913
0.199912
0.199912
0.199911
0.199911
0.19991
0.19991
0.199909
0.199909
0.199908
0.199908
0.199907
0.199907
0.199906
0.199906
0.199905
0.199905
0.199904
0.199904
0.199903
0.199903
0.199902
0.199902
0.199901
0.199901
0.1999
0.1999
0.199899
0.199899
0.199898
0.199898
0.199897
0.199897
0.199896
0.199896
0.199895
0.199895
0.199894
0.199894
0.199893
0.199893
0.199892
0.199892
0.199891
0.199891
0.19989
0.19989
0.199889
0.199889
0.199888
0.199888
0.199887
0.199887
0.199886
0.199886
0.199885
0.199885
0.199885
0.199884
0.199884
0.199883
0.199883
0.199882
0.199882
0.199881
0.199881
0.19988
0.19988
0.199879
0.199879
0.199877
0.199816
0.198408
0.195841
0.193305
0.190816
0.188374
0.185979
0.183629
0.181324
0.179061
0.176841
0.174662
0.172523
0.170424
0.168363
0.166339
0.164351
0.162399
0.160482
0.158599
0.156749
0.154931
0.153145
0.151389
0.149664
0.147968
0.146301
0.144662
0.143051
0.141467
0.139909
0.138376
0.136869
0.135387
0.133928
0.132493
0.131081
0.129692
0.128325
0.126979
0.125655
0.124351
0.123068
0.121804
0.12056
0.119335
0.118129
0.116941
0.11577
0.114618
0.113483
0.112364
0.111262
0.110177
0.109107
0.108053
0.107014
0.10599
0.104981
0.103986
0.103005
0.102039
0.101086
0.100146
0.0992194
0.0983057
0.0974047
0.096516
0.0956396
0.0947751
0.0939224
0.0930812
0.0922513
0.0914325
0.0906247
0.0898276
0.089041
0.0882648
0.0874988
0.0867428
0.0859966
0.0852601
0.084533
0.0838153
0.0831068
0.0824072
0.0817166
0.0810346
0.0803612
0.0796963
0.0790396
0.078391
0.0777505
0.0771179
0.076493
0.0758758
0.075266
0.0746636
0.0740685
0.0734806
0.0728997
0.0723257
0.0717585
0.071198
0.0706441
0.0700967
0.0695558
0.0690211
0.0684926
0.0679702
0.0674538
0.0669434
0.0664388
0.0659399
0.0654467
0.064959
0.0644768
0.0640001
0.0635286
0.0630624
0.0626014
0.0621455
0.0616945
0.0612486
0.0608075
0.0603712
0.0599396
0.0595127
0.0590904
0.0586726
0.0582593
0.0578504
0.0574458
0.0570455
0.0566495
0.0562575
0.0558697
0.055486
0.0551062
0.0547304
0.0543585
0.0539903
0.053626
0.0532654
0.0529084
0.0525551
0.0522054
0.0518592
0.0515164
0.0511771
0.0508412
0.0505087
0.0501794
0.0498534
0.0495306
0.049211
0.0488945
0.0485811
0.0482707
0.0479634
0.047659
0.0473575
0.047059
0.0467633
0.0464704
0.0461804
0.045893
0.0456084
0.0453265
0.0450472
0.0447706
0.0444965
0.044225
0.043956
0.0436895
0.0434254
0.0431638
0.0429046
0.0426477
0.0423932
0.042141
0.0418911
0.0416434
0.041398
0.0411548
0.0409137
0.0406748
0.040438
0.0402034
0.0399708
0.0397402
0.0395117
0.0392852
0.0390607
0.0388381
0.0386175
0.0383987
0.0381819
0.0379669
0.0377538
0.0375425
0.0373331
0.0371254
0.0369194
0.0367152
0.0365128
0.036312
0.0361129
0.0359155
0.0357198
0.0355257
0.0353331
0.0351422
0.0349529
0.0347651
0.0345789
0.0343942
0.034211
0.0340293
0.033849
0.0336703
0.0334929
0.033317
0.0331426
0.0329695
0.0327978
0.0326274
0.0324585
0.0322908
0.0321245
0.0319595
0.0317958
0.0316334
0.0314723
0.0313124
0.0311537
0.0309963
0.0308401
0.0306851
0.0305314
0.0303787
0.0302273
0.030077
0.0299279
0.0297799
0.029633
0.0294872
0.0293425
0.029199
0.0290564
0.028915
0.0287746
0.0286353
0.028497
0.0283597
0.0282234
0.0280882
0.0279539
0.0278206
0.0276883
0.0275569
0.0274266
0.0272971
0.0271686
0.027041
0.0269144
0.0267886
0.0266637
0.0265398
0.0264167
0.0262945
0.0261732
0.0260527
0.0259331
0.0258143
0.0256963
0.0255792
0.0254629
0.0253474
0.0252327
0.0251188
0.0250057
0.0248933
0.0247818
0.024671
0.0245609
0.0244517
0.0243431
0.0242353
0.0241282
0.0240219
0.0239162
0.0238113
0.0237071
0.0236036
0.0235007
0.0233986
0.0232971
0.0231963
0.0230962
0.0229967
0.0228979
0.0227997
0.0227022
0.0226053
0.022509
0.0224134
0.0223184
0.022224
0.0221302
0.022037
0.0219444
0.0218524
0.021761
0.0216701
0.0215799
0.0214902
0.021401
0.0213125
0.0212245
0.021137
0.0210501
0.0209637
0.0208779
0.0207926
0.0207078
0.0206236
0.0205399
0.0204567
0.0203739
0.0202917
0.0202101
0.0201288
0.0200481
0.0199679
0.0198882
0.0198089
0.0197301
0.0196518
0.019574
0.0194966
0.0194197
0.0193432
0.0192672
0.0191916
0.0191165
0.0190418
0.0189676
0.0188938
0.0188204
0.0187474
0.0186749
0.0186028
0.0185311
0.0184598
0.0183889
0.0183185
0.0182484
0.0181787
0.0181094
0.0180405
0.017972
0.0179039
0.0178362
0.0177688
0.0177019
0.0176352
0.017569
0.0175031
0.0174376
0.0173725
0.0173077
0.0172433
0.0171792
0.0171155
0.0170521
0.016989
0.0169263
0.016864
0.0168019
0.0167402
0.0166789
0.0166178
0.0165571
0.0164967
0.0164366
0.0163769
0.0163174
0.0162583
0.0161995
0.016141
0.0160828
0.0160249
0.0159672
0.0159099
0.0158529
0.0157962
0.0157397
0.0156836
0.0156277
0.0155722
0.0155169
0.0154618
0.0154071
0.0153526
0.0152984
0.0152445
0.0151909
0.0151375
0.0150843
0.0150315
0.0149789
0.0149265
0.0148744
0.0148226
0.014771
0.0147197
0.0146686
0.0146177
0.0145671
0.0145168
0.0144667
0.0144168
0.0143671
0.0143177
0.0142686
0.0142196
0.0141709
0.0141224
0.0140742
0.0140261
0.0139783
0.0139307
0.0138834
0.0138362
0.0137893
0.0137426
0.013696
0.0136497
0.0136037
0.0135578
0.0135121
0.0134666
0.0134214
0.0133763
0.0133314
0.0132868
0.0132423
0.013198
0.0131539
0.0131101
0.0130664
0.0130229
0.0129795
0.0129364
0.0128935
0.0128507
0.0128081
0.0127657
0.0127235
0.0126815
0.0126396
0.012598
0.0125564
0.0125151
0.012474
0.012433
0.0123921
0.0123515
0.012311
0.0122707
0.0122305
0.0121906
0.0121507
0.0121111
0.0120716
0.0120322
0.011993
0.011954
0.0119151
0.0118764
0.0118378
0.0117994
0.0117612
0.011723
0.0116851
0.0116473
0.0116096
0.0115721
0.0115347
0.0114975
0.0114604
0.0114234
0.0113866
0.0113499
0.0113134
0.011277
0.0112408
0.0112046
0.0111686
0.0111328
0.0110971
0.0110615
0.011026
0.0109907
0.0109555
0.0109204
0.0108855
0.0108507
0.010816
0.0107814
0.010747
0.0107126
0.0106784
0.0106444
0.0106104
0.0105766
0.0105428
0.0105092
0.0104758
0.0104424
0.0104091
0.010376
0.010343
0.0103101
0.0102773
0.0102446
0.010212
0.0101795
0.0101472
0.0101149
0.0100828
0.0100507
0.0100188
0.00998698
0.00995526
0.00992364
0.00989213
0.00986072
0.00982941
0.00979821
0.0097671
0.00973609
0.00970519
0.00967438
0.00964367
0.00961305
0.00958253
0.00955211
0.00952179
0.00949155
0.00946142
0.00943137
0.00940142
0.00937156
0.00934179
0.00931211
0.00928253
0.00925303
0.00922362
0.0091943
0.00916507
0.00913593
0.00910687
0.0090779
0.00904901
0.00902021
0.00899149
0.00896286
0.00893431
0.00890584
0.00887746
0.00884916
0.00882094
0.0087928
0.00876474
0.00873676
0.00870886
0.00868103
0.00865329
0.00862562
0.00859804
0.00857052
0.00854309
0.00851573
0.00848844
0.00846123
0.0084341
0.00840703
0.00838005
0.00835313
0.00832629
0.00829952
0.00827282
0.00824619
0.00821963
0.00819314
0.00816673
0.00814038
0.0081141
0.00808789
0.00806175
0.00803567
0.00800967
0.00798373
0.00795785
0.00793204
0.0079063
0.00788063
0.00785501
0.00782947
0.00780398
0.00777856
0.00775321
0.00772792
0.00770269
0.00767752
0.00765241
0.00762737
0.00760239
0.00757746
0.0075526
0.0075278
0.00750306
0.00747838
0.00745376
0.00742919
0.00740469
0.00738024
0.00735585
0.00733152
0.00730724
0.00728302
0.00725886
0.00723475
0.00721071
0.00718671
0.00716277
0.00713889
0.00711506
0.00709128
0.00706756
0.0070439
0.00702028
0.00699672
0.00697322
0.00694976
0.00692636
0.00690301
0.00687971
0.00685646
0.00683327
0.00681012
0.00678703
0.00676399
0.00674099
0.00671805
0.00669516
0.00667231
0.00664952
0.00662677
0.00660407
0.00658143
0.00655883
0.00653627
0.00651377
0.00649131
0.0064689
0.00644654
0.00642422
0.00640195
0.00637973
0.00635755
0.00633542
0.00631334
0.0062913
0.0062693
0.00624735
0.00622545
0.00620359
0.00618177
0.00616
0.00613827
0.00611659
0.00609495
0.00607335
0.0060518
0.00603029
0.00600882
0.0059874
0.00596602
0.00594468
0.00592338
0.00590213
0.00588091
0.00585974
0.00583861
0.00581752
0.00579647
0.00577547
0.0057545
0.00573357
0.00571269
0.00569184
0.00567104
0.00565027
0.00562955
0.00560886
0.00558822
0.00556761
0.00554704
0.00552651
0.00550602
0.00548557
0.00546516
0.00544479
0.00542445
0.00540415
0.0053839
0.00536367
0.00534349
0.00532334
0.00530324
0.00528317
0.00526313
0.00524314
0.00522318
0.00520325
0.00518337
0.00516352
0.00514371
0.00512393
0.00510419
0.00508449
0.00506482
0.00504519
0.00502559
0.00500603
0.00498651
0.00496702
0.00494757
0.00492815
0.00490877
0.00488942
0.00487011
0.00485083
0.00483159
0.00481238
0.00479321
0.00477407
0.00475497
0.0047359
0.00471686
0.00469786
0.00467889
0.00465996
0.00464106
0.0046222
0.00460337
0.00458457
0.0045658
0.00454707
0.00452838
0.00450971
0.00449108
0.00447249
0.00445393
0.00443539
0.0044169
0.00439843
0.00438
0.00436161
0.00434324
0.00432491
0.00430661
0.00428834
0.00427011
0.00425191
0.00423374
0.0042156
0.00419749
0.00417942
0.00416138
0.00414337
0.0041254
0.00410746
0.00408954
0.00407167
0.00405382
0.004036
0.00401822
0.00400047
0.00398275
0.00396506
0.0039474
0.00392978
0.00391219
0.00389463
0.0038771
0.0038596
0.00384213
0.0038247
0.0038073
0.00378992
0.00377258
0.00375528
0.003738
0.00372075
0.00370354
0.00368635
0.0036692
0.00365208
0.00363499
0.00361793
0.00360091
0.00358391
0.00356695
0.00355001
0.00353311
0.00351624
0.0034994
0.00348259
0.00346581
0.00344907
0.00343235
0.00341567
0.00339901
0.00338239
0.0033658
0.00334924
0.00333271
0.00331621
0.00329975
0.00328331
0.00326691
0.00325053
0.00323419
0.00321788
0.0032016
0.00318535
0.00316913
0.00315294
0.00313679
0.00312066
0.00310457
0.00308851
0.00307248
0.00305648
0.00304051
0.00302457
0.00300866
0.00299279
0.00297695
0.00296113
0.00294535
0.0029296
0.00291388
0.0028982
0.00288254
0.00286692
0.00285132
0.00283576
0.00282023
0.00280473
0.00278927
0.00277383
0.00275843
0.00274306
0.00272772
0.00271241
0.00269713
0.00268188
0.00266667
0.00265149
0.00263634
0.00262122
0.00260614
0.00259108
0.00257606
0.00256107
0.00254611
0.00253119
0.00251629
0.00250143
0.0024866
0.00247181
0.00245704
0.00244231
0.00242761
0.00241295
0.00239831
0.00238371
0.00236914
0.00235461
0.0023401
0.00232563
0.00231119
0.00229679
0.00228242
0.00226808
0.00225377
0.0022395
0.00222526
0.00221105
0.00219688
0.00218274
0.00216864
0.00215456
0.00214053
0.00212652
0.00211255
0.00209861
0.00208471
0.00207084
0.002057
0.0020432
0.00202943
0.0020157
0.002002
0.00198834
0.00197471
0.00196111
0.00194755
0.00193402
0.00192053
0.00190707
0.00189365
0.00188026
0.00186691
0.00185359
0.00184031
0.00182707
0.00181385
0.00180068
0.00178754
0.00177443
0.00176136
0.00174833
0.00173533
0.00172237
0.00170945
0.00169656
0.00168371
0.00167089
0.00165811
0.00164537
0.00163266
0.00161999
0.00160735
0.00159476
0.0015822
0.00156968
0.00155719
0.00154474
0.00153233
0.00151996
0.00150762
0.00149533
0.00148307
0.00147084
0.00145866
0.00144652
0.00143441
0.00142234
0.00141031
0.00139832
0.00138636
0.00137445
0.00136257
0.00135074
0.00133894
0.00132718
0.00131546
0.00130378
0.00129214
0.00128054
0.00126898
0.00125746
0.00124598
0.00123454
0.00122314
0.00121178
0.00120046
0.00118919
0.00117795
0.00116675
0.0011556
0.00114449
0.00113341
0.00112238
0.00111139
0.00110045
0.00108954
0.00107868
0.00106786
0.00105708
0.00104634
0.00103565
0.001025
0.00101439
0.00100382
0.000993303
0.000982824
0.000972389
0.000961997
0.00095165
0.000941346
0.000931086
0.00092087
0.000910699
0.000900572
0.00089049
0.000880452
0.00087046
0.000860513
0.000850611
0.000840754
0.000830943
0.000821178
0.000811459
0.000801785
0.000792158
0.000782578
0.000773044
0.000763556
0.000754116
0.000744723
0.000735376
0.000726078
0.000716827
0.000707623
0.000698468
0.00068936
0.000680301
0.000671291
0.000662329
0.000653416
0.000644551
0.000635736
0.000626971
0.000618254
0.000609588
0.000600972
0.000592405
0.000583889
0.000575423
0.000567008
0.000558644
0.000550331
0.000542069
0.000533859
0.0005257
0.000517593
0.000509538
0.000501535
0.000493584
0.000485687
0.000477842
0.00047005
0.000462311
0.000454626
0.000446994
0.000439416
0.000431893
0.000424423
0.000417008
0.000409648
0.000402343
0.000395092
0.000387897
0.000380758
0.000373674
0.000366647
0.000359675
0.000352761
0.000345902
0.000339101
0.000332356
0.00032567
0.00031904
0.000312468
0.000305955
0.0002995
0.000293103
0.000286765
0.000280485
0.000274265
0.000268105
0.000262004
0.000255963
0.000249982
0.000244061
0.000238201
0.000232402
0.000226664
0.000220987
0.000215372
0.000209819
0.000204327
0.000198898
0.000193582
0.000188399
0.000183344
0.000178414
0.000173608
0.000168922
0.000164353
0.000159898
0.000155556
0.000151322
0.000147196
0.000143174
0.000139254
0.000135434
0.000131711
0.000128083
0.000124547
0.000121103
0.000117746
0.000114476
0.000111291
0.000108187
0.000105164
0.00010222
9.93523e-05
9.65593e-05
9.38393e-05
9.11906e-05
8.86114e-05
8.61001e-05
8.36551e-05
8.12747e-05
7.89573e-05
7.67015e-05
7.45057e-05
7.23685e-05
7.02885e-05
6.82642e-05
6.62942e-05
6.43773e-05
6.25121e-05
6.06974e-05
5.89319e-05
5.72143e-05
5.55435e-05
5.39183e-05
5.23376e-05
5.08002e-05
4.93051e-05
4.78512e-05
4.64375e-05
4.50628e-05
4.37264e-05
4.24271e-05
4.1164e-05
3.99362e-05
3.87428e-05
3.75829e-05
3.64556e-05
3.53602e-05
3.42957e-05
3.32614e-05
3.22565e-05
3.12802e-05
3.03318e-05
2.94106e-05
2.85158e-05
2.76467e-05
2.68027e-05
2.59831e-05
2.51873e-05
2.44146e-05
2.36644e-05
2.29361e-05
2.22292e-05
2.1543e-05
2.08771e-05
2.02308e-05
1.96036e-05
1.89951e-05
1.84047e-05
1.7832e-05
1.72764e-05
1.67375e-05
1.62148e-05
1.5708e-05
1.52165e-05
1.474e-05
1.42781e-05
1.38303e-05
1.33962e-05
1.29756e-05
1.2568e-05
1.21731e-05
1.17905e-05
1.14199e-05
1.1061e-05
1.07134e-05
1.03768e-05
1.0051e-05
9.73566e-06
9.43047e-06
9.13516e-06
8.84947e-06
8.57314e-06
8.30592e-06
8.04756e-06
7.79782e-06
7.55647e-06
7.32329e-06
7.09807e-06
6.88058e-06
6.67063e-06
6.46802e-06
6.27256e-06
6.08406e-06
5.90234e-06
5.72724e-06
5.55857e-06
5.39619e-06
5.23993e-06
5.08965e-06
4.9452e-06
4.80643e-06
4.67321e-06
4.54542e-06
4.42293e-06
4.30561e-06
4.19336e-06
4.08606e-06
3.9836e-06
3.88588e-06
3.79282e-06
3.7043e-06
3.62025e-06
3.54059e-06
3.46522e-06
3.39408e-06
3.3271e-06
3.2642e-06
3.20532e-06
3.15041e-06
3.09941e-06
3.05227e-06
3.00893e-06
2.96936e-06
2.93351e-06
2.90135e-06
2.87285e-06
2.84797e-06
2.8267e-06
2.809e-06
2.79486e-06
2.78427e-06
2.77722e-06
2.7737e-06
)
;

boundaryField
{
    bottom
    {
        type            fixedValue;
        value           uniform 0.1;
    }
    top
    {
        type            zeroGradient;
    }
    walls
    {
        type            zeroGradient;
    }
}


// ************************************************************************* //
