/*--------------------------------*- C++ -*----------------------------------*\
| =========                 |                                                 |
| \\      /  F ield         | foam-extend: Open Source CFD                    |
|  \\    /   O peration     | Version:     5.0                                |
|   \\  /    A nd           | Web:         http://www.foam-extend.org         |
|    \\/     M anipulation  |                                                 |
\*---------------------------------------------------------------------------*/
FoamFile
{
    version     2.0;
    format      ascii;
    class       surfaceScalarField;
    location    "5000";
    object      phi;
}
// * * * * * * * * * * * * * * * * * * * * * * * * * * * * * * * * * * * * * //

dimensions      [0 3 -1 0 0 0 0];

internalField   nonuniform List<scalar> 
1499
(
4.74789e-14
-4.39173e-14
-2.45882e-14
2.43026e-14
7.7748e-15
1.97967e-14
-3.41594e-14
-1.05328e-14
4.29944e-14
-3.70227e-14
2.02876e-14
3.49591e-15
-9.72692e-15
3.63047e-14
-2.94924e-14
3.55258e-14
1.61236e-14
-3.43512e-14
-3.03798e-14
3.39027e-14
2.93915e-14
-6.87271e-14
-2.02954e-14
5.93798e-14
-1.33025e-14
1.91346e-15
5.53193e-15
-2.99516e-14
9.25632e-15
-8.18532e-15
1.59558e-14
-2.54616e-14
-1.08493e-14
6.09638e-14
-4.04205e-14
4.00243e-14
-4.01173e-14
2.11881e-14
-2.24639e-15
-4.34853e-14
2.5253e-14
4.11886e-14
-7.00757e-14
2.36533e-14
3.36983e-14
-2.08014e-14
8.24746e-14
-6.92334e-14
2.84917e-14
3.3422e-14
-7.54964e-14
3.23806e-15
3.58114e-14
-1.41277e-14
1.3856e-14
-1.97053e-14
2.18655e-14
-4.09739e-17
-2.08543e-14
-1.25744e-14
5.64735e-14
-1.3488e-14
-5.48417e-14
-1.84483e-14
6.69162e-14
-2.45868e-14
4.14034e-14
-7.98281e-14
1.6347e-15
3.37678e-14
-2.561e-14
3.74765e-14
-1.04973e-14
2.34499e-14
-5.62901e-14
3.69269e-14
5.80361e-15
-4.35617e-14
3.28145e-14
-3.00419e-14
2.87746e-14
9.74847e-15
2.39074e-14
-9.01618e-14
4.75543e-14
4.42505e-14
-8.53303e-14
6.49946e-14
-3.10999e-14
4.13046e-14
-4.34608e-14
-1.57286e-14
9.8436e-15
3.44802e-14
-4.96735e-14
2.33783e-14
1.51763e-14
-2.13496e-14
1.84043e-14
4.19869e-14
-2.74295e-14
1.20646e-14
-2.77588e-14
6.03785e-14
-1.16077e-14
-8.33477e-14
2.19254e-14
-4.72248e-15
3.43759e-14
-3.64356e-14
3.34329e-14
2.34334e-14
-3.17578e-14
-4.09573e-14
7.48582e-14
-4.39974e-14
1.05859e-14
1.40228e-14
-8.71834e-15
-4.39551e-15
3.18527e-14
-5.35981e-14
4.41669e-14
1.5768e-15
-2.16578e-14
4.35824e-14
-5.95045e-14
2.42276e-14
-1.79778e-14
4.86629e-14
2.38284e-14
-3.62107e-14
-1.51271e-14
-4.0071e-14
5.69306e-14
-1.69951e-14
4.55345e-15
-8.52639e-15
2.73343e-14
1.02284e-15
2.01931e-14
-1.16723e-13
7.5709e-14
2.1177e-15
-2.72985e-14
7.19686e-14
-4.99683e-14
1.56128e-14
-2.69508e-14
1.09649e-14
-2.71799e-14
6.66652e-15
4.86953e-14
-5.97315e-14
5.93812e-14
-3.33077e-14
-1.95284e-14
7.41059e-15
-7.54382e-15
3.59954e-14
1.90122e-14
-7.75066e-16
-1.90763e-14
1.27458e-14
2.48464e-14
-4.27463e-14
6.34549e-15
-3.03862e-14
7.64064e-14
-3.32211e-14
9.14481e-15
5.03231e-15
-5.75651e-14
6.52187e-14
-4.79789e-14
5.80129e-14
-6.65622e-15
-2.60953e-14
3.3637e-15
3.91439e-16
-1.73708e-14
3.978e-14
-2.28397e-14
6.52382e-14
-9.33859e-14
4.56118e-14
-6.51837e-15
2.33352e-14
-4.27142e-14
3.05052e-14
-3.28632e-14
-4.7128e-15
2.17479e-14
-1.27341e-14
8.38925e-16
-3.42313e-15
3.98508e-14
-5.63335e-14
8.0908e-14
-3.32794e-14
3.92664e-14
-6.85367e-14
3.29064e-14
1.77155e-14
-5.27657e-14
2.45502e-14
3.64558e-14
1.55726e-14
-3.42511e-14
-2.08787e-14
1.99707e-14
3.16025e-14
1.33858e-14
-3.56401e-14
-2.82355e-14
1.90617e-14
-6.43844e-14
7.23847e-14
-2.60674e-14
2.13635e-14
-2.23306e-14
1.53927e-14
-2.94551e-14
1.98177e-14
1.31757e-14
2.70592e-14
-4.35672e-14
2.3232e-15
3.03521e-14
-8.6825e-15
5.23782e-15
1.72622e-14
-1.85263e-14
-9.3309e-15
-1.07976e-14
2.18387e-16
5.89691e-14
-5.61701e-14
7.86029e-14
-5.44768e-14
2.52462e-14
-4.10616e-14
6.95704e-14
-2.65667e-14
-4.74876e-14
2.77451e-14
-1.10341e-14
2.7015e-14
-4.18858e-14
1.81873e-14
6.68308e-15
2.81962e-14
-7.59153e-15
-4.24712e-14
-2.44423e-14
5.54467e-15
8.94415e-14
-5.3162e-14
5.39026e-15
-2.60408e-14
7.59303e-14
3.90011e-14
-3.01158e-14
-8.02334e-14
-5.37899e-14
2.93113e-14
1.30774e-13
-1.01264e-13
1.17895e-13
-8.14191e-14
-3.81572e-14
-6.77302e-14
6.72182e-14
2.82023e-14
3.96163e-14
-9.97881e-14
1.0991e-13
-4.79982e-14
1.71308e-13
-2.11281e-13
7.68252e-14
-2.85002e-14
-2.48841e-14
7.22754e-15
1.40769e-13
-6.61285e-15
-3.01337e-13
1.40437e-13
-7.38256e-14
2.8152e-13
-2.01376e-13
1.17754e-13
-5.31797e-14
1.50317e-14
-7.35522e-14
1.53767e-13
-9.58713e-14
7.04269e-14
-1.18247e-13
2.47129e-14
2.15242e-13
-2.93074e-14
-2.92152e-15
-3.37083e-13
1.27231e-13
1.08308e-13
-6.62647e-14
2.0111e-14
2.26376e-13
4.40672e-14
9.19378e-14
2.80416e-15
-2.82777e-13
-7.06663e-15
-5.10518e-14
1.76841e-14
-1.45537e-14
1.2349e-13
8.68246e-15
1.44594e-14
-2.38196e-13
1.70387e-13
-2.95704e-13
3.53681e-13
2.51234e-14
-1.49518e-13
-3.28827e-14
1.20962e-13
-5.87347e-14
6.8828e-14
-4.01774e-14
-5.8712e-14
-7.31608e-15
1.89477e-13
-2.32283e-14
-2.142e-14
-1.59504e-13
3.00039e-13
-1.63522e-13
1.20305e-14
-2.72575e-13
4.34037e-13
-2.06216e-13
-8.4633e-15
1.75737e-14
-4.38631e-14
-7.28141e-14
1.0648e-13
8.47748e-14
-2.40611e-13
9.0168e-14
1.38858e-14
-2.794e-13
3.18798e-13
-2.22778e-14
1.22035e-13
-2.46132e-14
-2.10551e-13
2.03045e-13
-1.42858e-13
5.24673e-14
1.20612e-14
2.27144e-13
-5.72228e-14
-2.98119e-13
6.93916e-14
8.53043e-14
6.03243e-14
-1.90759e-13
1.68691e-13
-1.34926e-13
2.15726e-13
-1.27667e-13
3.41658e-14
9.39083e-14
-4.77918e-14
5.3145e-14
-2.45687e-13
3.10929e-13
1.89648e-13
-3.64173e-13
3.12012e-13
-6.51971e-14
-1.48844e-13
-1.07974e-13
5.00364e-13
-4.13582e-13
-3.0229e-14
1.64394e-13
-1.40482e-14
1.91583e-13
-2.30776e-14
-1.61407e-13
1.50084e-13
-8.7131e-14
3.95406e-14
1.0163e-13
-5.21054e-14
-3.68445e-14
-2.1805e-14
-1.42688e-13
4.09742e-14
1.92903e-13
-2.89804e-14
5.54278e-14
-1.28863e-13
-1.35259e-13
1.91342e-13
1.82995e-13
-9.1754e-14
-1.0859e-13
1.12459e-13
6.089e-14
2.77969e-15
1.21892e-13
-3.86145e-14
-3.19318e-14
-5.23368e-15
5.94175e-14
3.95489e-14
-1.62289e-13
5.83641e-14
2.28287e-13
-7.67896e-14
-9.07994e-14
9.70097e-14
6.5711e-14
-1.32595e-13
1.15041e-13
4.57227e-14
-1.21458e-14
-4.57407e-14
2.16435e-13
-1.77415e-13
9.08091e-14
5.17115e-14
1.205e-13
-5.70226e-14
5.22719e-14
2.04809e-13
-2.59321e-13
1.49895e-13
8.43241e-14
-5.83781e-14
3.85067e-14
1.66878e-14
9.67145e-16
-7.22083e-14
1.07856e-13
7.52036e-14
-5.60386e-15
2.56533e-14
1.9492e-14
-1.28793e-15
4.41682e-15
8.72936e-15
1.72858e-13
1.48412e-16
-1.21364e-13
6.89963e-14
8.58359e-14
-5.42425e-14
1.10183e-13
-6.50492e-14
1.50604e-15
2.11866e-13
-1.22668e-13
1.12664e-13
1.71714e-15
5.62603e-14
-1.83599e-13
1.42658e-14
1.6526e-13
-2.9411e-14
-7.53349e-15
6.63417e-14
1.03099e-13
2.59311e-14
-8.38813e-14
1.12211e-13
-1.52374e-13
1.33685e-13
3.60872e-14
5.62911e-14
1.10016e-13
-6.72031e-14
-9.66699e-15
-5.53789e-14
2.00004e-13
-4.27289e-15
-1.58227e-14
-5.04645e-14
1.28275e-13
-5.71231e-14
9.05534e-15
-1.43587e-14
6.78235e-14
2.56054e-14
2.5148e-15
4.79853e-14
4.96781e-14
-4.73581e-14
7.54326e-14
1.04436e-14
2.48019e-14
-5.07523e-14
1.27176e-13
-3.20966e-14
4.47795e-16
2.16909e-14
-2.00488e-14
2.7957e-14
9.86332e-14
-8.24141e-14
1.64553e-13
4.15952e-14
-1.76919e-13
1.39712e-14
8.17985e-14
2.73813e-14
-3.41501e-14
3.00445e-14
1.12795e-13
-4.83828e-14
-9.51443e-14
1.04523e-13
7.16614e-14
-1.10249e-13
4.32056e-14
9.42697e-14
-6.91162e-14
5.44755e-14
8.91861e-15
-4.23345e-14
1.29988e-13
-7.56017e-14
1.16993e-13
-2.94688e-14
-4.07495e-14
1.30267e-13
-3.17757e-14
2.97259e-14
3.68308e-14
-8.89631e-14
3.03107e-14
7.26954e-14
4.99917e-14
1.22901e-15
3.79738e-14
9.62999e-14
-1.55652e-14
9.92962e-15
-1.9941e-14
2.3856e-14
3.83578e-14
3.72336e-14
-7.81645e-14
9.05979e-14
-3.61354e-14
3.21345e-14
6.86939e-14
8.17511e-14
-7.04967e-14
-4.24901e-14
7.6879e-14
5.27371e-14
6.56653e-14
-4.55086e-14
4.92994e-14
-1.78623e-14
3.76459e-14
-2.43889e-15
1.11265e-14
4.01708e-14
1.19309e-16
-5.84281e-16
4.6416e-14
3.05307e-14
4.35419e-14
-2.86154e-14
8.97854e-14
-9.93933e-15
8.79477e-14
4.78e-14
-1.46244e-14
5.74682e-14
4.45261e-14
-3.86498e-14
3.16947e-14
2.83293e-14
7.36683e-14
4.87967e-15
4.51708e-14
-2.58225e-14
1.04483e-14
6.73714e-14
7.684e-15
5.4614e-14
-6.92372e-15
4.94466e-14
4.23912e-14
-5.36825e-14
-2.65794e-16
7.49047e-14
2.27388e-15
-2.28474e-14
8.99128e-14
-2.1097e-14
2.91853e-14
-8.13127e-15
1.57663e-14
5.62477e-14
6.38842e-14
-4.48496e-14
7.4563e-14
2.85752e-14
1.08968e-14
-1.73685e-14
1.7609e-14
9.16779e-14
6.37372e-14
-1.7663e-14
8.08706e-15
-2.88099e-15
8.55894e-14
-1.54066e-14
7.68789e-14
-4.42624e-15
1.90128e-14
4.3026e-14
4.41542e-14
3.19838e-14
-5.00322e-14
1.07444e-13
-4.17331e-15
4.93263e-14
-3.05771e-14
5.36535e-14
4.16762e-14
-2.63147e-14
9.6344e-14
1.36715e-14
8.15373e-14
1.49072e-15
1.78377e-14
2.89799e-14
3.57014e-14
2.13222e-14
1.31568e-14
9.02776e-14
-4.56843e-14
5.97813e-14
-8.73076e-15
8.02638e-14
3.83072e-14
-2.07889e-14
3.73738e-14
1.96154e-14
4.68074e-14
2.18895e-14
5.65825e-15
3.1879e-14
4.48051e-15
8.39382e-14
-1.07312e-15
4.77295e-14
4.85215e-15
2.57287e-15
9.95958e-14
1.71618e-14
-2.30485e-14
3.8637e-14
-1.34429e-14
5.16168e-14
8.58569e-15
8.82346e-15
3.08163e-14
4.4843e-14
2.98978e-14
5.55153e-14
-5.17405e-15
-1.7422e-14
9.20581e-14
-6.51988e-16
1.25431e-14
1.77865e-14
3.04438e-14
9.13452e-16
6.19672e-14
-5.06223e-14
5.71658e-14
2.7578e-14
2.61813e-15
1.0599e-14
4.01292e-14
1.06822e-14
9.98562e-16
-8.87929e-15
2.33501e-14
8.42939e-15
3.67318e-14
-5.24759e-16
2.94278e-14
-4.42724e-15
1.7711e-14
1.49829e-14
1.31719e-14
3.18062e-14
6.09297e-15
4.29277e-14
-5.93471e-15
1.21302e-14
4.64468e-15
8.14717e-15
5.30109e-14
3.40278e-15
-1.89145e-14
5.22303e-14
-3.65448e-15
2.58186e-14
-2.05313e-14
3.90595e-14
-1.0391e-14
4.39097e-14
2.9553e-14
7.23456e-15
3.87444e-14
7.63093e-15
1.69507e-14
1.98203e-14
7.63335e-15
2.85783e-14
3.42187e-14
1.8195e-14
-1.92968e-14
4.25225e-15
1.70525e-14
6.95316e-14
-1.09728e-14
-1.70057e-14
2.78059e-14
-9.10784e-15
5.17421e-14
6.6022e-15
3.19871e-15
-9.32699e-15
3.29377e-14
4.86699e-14
4.35256e-15
-8.18655e-15
2.28308e-14
3.60457e-14
1.04248e-14
5.55989e-15
-8.22732e-15
-1.01589e-16
-7.42997e-15
6.26866e-14
-1.38313e-14
-7.70302e-16
8.19363e-15
-1.77131e-15
2.93009e-14
-3.39686e-15
4.57866e-15
4.8055e-14
-9.49519e-15
3.02305e-15
1.52106e-14
2.8421e-14
3.01237e-14
-4.44273e-15
1.63241e-15
1.06312e-14
9.37726e-15
2.75781e-14
7.75045e-15
-1.15012e-14
2.66198e-14
2.66552e-14
3.63719e-14
-2.01032e-14
1.89981e-14
2.6211e-14
2.65578e-14
5.29309e-14
2.02123e-14
6.53147e-15
3.96568e-14
1.22985e-14
3.20086e-14
4.27444e-14
3.93425e-15
3.13146e-14
3.32406e-14
3.01445e-14
3.79376e-15
3.47555e-14
1.02142e-14
2.88664e-14
3.84022e-14
1.4533e-14
3.28825e-14
1.788e-15
4.95476e-14
2.24143e-14
4.00283e-14
2.52669e-14
2.40822e-14
1.90296e-14
4.93003e-14
1.42446e-14
3.57815e-14
2.84374e-15
3.78655e-14
4.74221e-14
1.84873e-14
6.37118e-15
3.04736e-14
3.59501e-14
1.69499e-14
2.57923e-14
1.4612e-14
3.44644e-14
5.26328e-16
1.35748e-15
3.71467e-14
1.30757e-14
3.37348e-14
2.39838e-14
2.18758e-14
1.40415e-14
2.43017e-15
3.27792e-14
4.4981e-16
2.74786e-14
1.55344e-14
3.76137e-14
2.27322e-14
-1.44478e-14
2.37843e-14
1.32978e-14
4.24969e-15
2.59723e-14
4.36283e-14
-9.71653e-15
2.77505e-14
1.25097e-14
2.16826e-14
2.9304e-14
6.66883e-15
2.45034e-14
2.76248e-14
-1.07202e-14
2.37765e-14
1.88323e-14
-6.59924e-15
-5.63579e-15
1.49478e-14
2.08745e-14
1.02788e-14
1.58457e-14
1.38627e-14
8.66414e-15
1.36829e-14
2.4918e-14
-2.42408e-15
3.57571e-14
1.51505e-14
6.30304e-15
3.95737e-14
-7.91761e-16
2.30012e-14
3.50269e-14
-6.83153e-15
1.30665e-14
9.07255e-15
1.89184e-14
-2.78597e-15
8.17369e-15
1.80631e-14
1.35069e-14
2.6018e-14
4.09223e-14
7.94916e-15
1.81635e-14
1.47552e-15
1.97661e-14
3.44223e-15
5.55652e-15
5.15724e-15
1.57891e-14
2.80033e-15
2.88798e-14
3.73748e-14
-4.23817e-15
1.29563e-14
-1.4539e-15
1.77353e-14
4.71441e-15
2.21694e-14
-1.34234e-15
1.46642e-14
-3.50412e-15
7.11175e-15
8.28335e-16
5.83109e-15
1.61421e-14
-4.86325e-15
9.54809e-15
-4.09839e-15
1.18089e-14
1.02213e-14
5.50864e-15
1.68326e-14
1.77829e-14
1.56262e-14
7.45263e-16
2.38034e-14
2.82265e-14
2.04774e-15
-7.25337e-16
3.61465e-14
1.15312e-15
1.39122e-14
7.7626e-15
3.12908e-15
4.38391e-14
-1.32591e-14
3.66197e-14
3.20628e-14
2.19978e-14
1.32227e-15
3.04951e-14
2.56433e-14
2.728e-14
1.13192e-14
3.27693e-14
4.96147e-14
1.11597e-14
3.43463e-14
5.28292e-14
3.91919e-14
3.8194e-14
4.20057e-14
6.47765e-14
5.36508e-14
4.22432e-14
5.93902e-14
4.36816e-14
6.91742e-14
5.96111e-14
5.7991e-14
5.06944e-14
6.96288e-14
5.01978e-14
6.45482e-14
5.92671e-14
5.71569e-14
4.5536e-14
7.84801e-14
4.7117e-14
5.67472e-14
5.8238e-14
6.58591e-14
7.19806e-14
4.6591e-14
3.69035e-14
8.00688e-14
4.63597e-14
6.58934e-14
6.48304e-14
4.05715e-14
4.11585e-14
7.08025e-14
5.62262e-14
5.47876e-14
7.25436e-14
4.3541e-14
7.07533e-14
6.62878e-14
4.15001e-14
7.11067e-14
4.11462e-14
7.3226e-14
4.34404e-14
3.34884e-14
4.80331e-14
3.70634e-14
6.83801e-14
4.15301e-14
5.9136e-14
5.51455e-14
3.92244e-14
2.90065e-14
5.73039e-14
2.65904e-14
3.96553e-14
6.23745e-14
5.49856e-14
2.55095e-14
4.60643e-14
4.16903e-14
5.00545e-14
5.24771e-14
4.06111e-14
5.15562e-14
4.54576e-14
5.93222e-14
6.30826e-14
6.02626e-14
3.20381e-14
5.66301e-14
4.89784e-14
5.22892e-14
5.76736e-14
5.30845e-14
6.3307e-14
5.66974e-14
5.38416e-14
5.77569e-14
8.27322e-14
5.69307e-14
8.37184e-14
6.41074e-14
6.3634e-14
7.27219e-14
6.67246e-14
5.94493e-14
6.13471e-14
6.62256e-14
7.27948e-14
6.98444e-14
7.60883e-14
7.25014e-14
6.42825e-14
5.27477e-14
7.48884e-14
6.02062e-14
6.42643e-14
8.09614e-14
6.36841e-14
5.67583e-14
5.36121e-14
6.17149e-14
7.27527e-14
5.85639e-14
5.2365e-14
6.45837e-14
5.18819e-14
5.407e-14
6.79912e-14
6.15948e-14
4.14481e-14
7.58619e-14
3.86253e-14
7.41529e-14
5.28604e-14
5.42627e-14
6.36657e-14
5.25095e-14
5.79685e-14
6.74502e-14
5.78097e-14
4.92663e-14
5.55048e-14
6.29246e-14
6.68224e-14
6.91161e-14
6.78919e-14
6.91127e-14
7.24782e-14
5.98272e-14
6.43917e-14
4.61104e-14
7.25901e-14
6.09966e-14
6.08474e-14
7.84e-14
7.42473e-14
7.22053e-14
5.94952e-14
6.72709e-14
6.5471e-14
7.23543e-14
6.17928e-14
8.70003e-14
6.59282e-14
7.3487e-14
6.55684e-14
6.94505e-14
6.8029e-14
6.86732e-14
5.19707e-14
7.55735e-14
7.03243e-14
7.03591e-14
7.16901e-14
6.60677e-14
6.75765e-14
6.15744e-14
7.12075e-14
7.26204e-14
8.13192e-14
8.67444e-14
7.07546e-14
7.88953e-14
7.99962e-14
8.42489e-14
7.54262e-14
7.01039e-14
8.10185e-14
8.02767e-14
8.35285e-14
8.65301e-14
7.51083e-14
9.18641e-14
7.8477e-14
7.79984e-14
8.81087e-14
7.98074e-14
7.34685e-14
8.45356e-14
9.02217e-14
8.20003e-14
8.16422e-14
8.69066e-14
7.90323e-14
8.33793e-14
8.1862e-14
7.54903e-14
7.43623e-14
8.0134e-14
8.26987e-14
8.90475e-14
8.66989e-14
9.37977e-14
8.15005e-14
8.04679e-14
9.13637e-14
8.74497e-14
9.46648e-14
1.01753e-13
8.67712e-14
8.4174e-14
9.43589e-14
8.72966e-14
9.85017e-14
8.48751e-14
9.66104e-14
9.04734e-14
8.67347e-14
7.90926e-14
8.34054e-14
7.75923e-14
8.31193e-14
8.50669e-14
7.75897e-14
8.38089e-14
8.21562e-14
9.21246e-14
8.85161e-14
8.84838e-14
9.70756e-14
9.47354e-14
9.51517e-14
8.98113e-14
1.08307e-13
1.0006e-13
1.08349e-13
1.03033e-13
1.05835e-13
1.07224e-13
9.7128e-14
1.14212e-13
1.03842e-13
1.08119e-13
1.11201e-13
1.06474e-13
9.87955e-14
1.02939e-13
1.09703e-13
1.1559e-13
1.08068e-13
1.09491e-13
1.11496e-13
1.1102e-13
1.09807e-13
1.11292e-13
1.0772e-13
1.16248e-13
1.06477e-13
1.07954e-13
1.13943e-13
1.08321e-13
1.17669e-13
1.20734e-13
1.20255e-13
1.14345e-13
1.12394e-13
1.15797e-13
1.13565e-13
1.24528e-13
1.19076e-13
1.14461e-13
1.2162e-13
1.11051e-13
1.15102e-13
1.15502e-13
1.17131e-13
1.11603e-13
1.2371e-13
1.12643e-13
1.11331e-13
1.04702e-13
1.12728e-13
1.12089e-13
1.04149e-13
1.05517e-13
1.08727e-13
1.08836e-13
1.02119e-13
1.09205e-13
1.19347e-13
1.12838e-13
1.10314e-13
1.02724e-13
1.04125e-13
1.05998e-13
1.10714e-13
1.01907e-13
1.04786e-13
1.14567e-13
1.07563e-13
1.05355e-13
1.10298e-13
1.10909e-13
1.08988e-13
1.07501e-13
1.11764e-13
1.15435e-13
1.09513e-13
1.0914e-13
1.08848e-13
1.06666e-13
1.05048e-13
9.39139e-14
1.08159e-13
1.13707e-13
1.10196e-13
1.10008e-13
1.10985e-13
1.12651e-13
1.1171e-13
1.11261e-13
1.14261e-13
1.15386e-13
1.17661e-13
1.1818e-13
1.17326e-13
1.16764e-13
1.08336e-13
1.11467e-13
1.12948e-13
1.17924e-13
1.10535e-13
1.15729e-13
1.1194e-13
1.1394e-13
1.1318e-13
1.19928e-13
1.18945e-13
1.17802e-13
1.21516e-13
1.16745e-13
1.21253e-13
1.22331e-13
1.18205e-13
1.20373e-13
1.11434e-13
1.14466e-13
1.13766e-13
1.14957e-13
1.17721e-13
1.14918e-13
1.13427e-13
1.10191e-13
1.07704e-13
1.09291e-13
1.10502e-13
1.03074e-13
1.06898e-13
1.07859e-13
1.09686e-13
1.10229e-13
1.14149e-13
1.10764e-13
1.14048e-13
1.14628e-13
1.07885e-13
1.11036e-13
1.13489e-13
1.1488e-13
1.08631e-13
1.04959e-13
1.06005e-13
1.05055e-13
1.03029e-13
1.07124e-13
1.06216e-13
9.17393e-14
9.96614e-14
9.52946e-14
9.18746e-14
1.0027e-13
9.68288e-14
1.0194e-13
1.00201e-13
1.03167e-13
1.05412e-13
1.08059e-13
1.10542e-13
1.08021e-13
1.09722e-13
1.07324e-13
1.06114e-13
1.08249e-13
1.09018e-13
1.08037e-13
1.05925e-13
1.12499e-13
1.10869e-13
1.12917e-13
1.03818e-13
1.11707e-13
1.07033e-13
1.10633e-13
1.07874e-13
1.06225e-13
1.05808e-13
1.06778e-13
9.98798e-14
9.97129e-14
1.03731e-13
1.04089e-13
1.01787e-13
1.08146e-13
1.0064e-13
1.06839e-13
1.04444e-13
9.89019e-14
1.08086e-13
1.06424e-13
1.06732e-13
1.06739e-13
1.11975e-13
1.0608e-13
1.07073e-13
1.11394e-13
1.11768e-13
1.10063e-13
1.15428e-13
1.11808e-13
1.11934e-13
1.06931e-13
1.11399e-13
1.14904e-13
1.15849e-13
1.1812e-13
1.16721e-13
1.21069e-13
1.13514e-13
1.06961e-13
1.07423e-13
9.91156e-14
1.00473e-13
1.01295e-13
9.85195e-14
1.03582e-13
1.02633e-13
1.01718e-13
1.10517e-13
1.046e-13
1.04332e-13
1.0867e-13
1.05811e-13
1.09108e-13
1.08563e-13
1.06832e-13
1.0111e-13
1.06582e-13
1.02625e-13
1.02744e-13
1.00574e-13
1.02509e-13
1.04061e-13
1.00898e-13
1.04676e-13
1.07477e-13
1.08569e-13
1.05369e-13
1.07887e-13
1.10018e-13
1.09327e-13
1.0688e-13
1.05567e-13
1.02938e-13
1.09103e-13
1.07325e-13
1.16632e-13
1.22195e-13
1.19836e-13
1.14344e-13
1.14052e-13
1.22004e-13
1.16271e-13
1.14153e-13
1.11578e-13
1.13383e-13
1.15551e-13
1.12235e-13
1.17242e-13
1.17642e-13
1.14785e-13
1.1893e-13
1.15399e-13
1.14477e-13
1.19308e-13
1.18847e-13
1.19817e-13
1.23633e-13
1.2102e-13
1.24112e-13
1.27205e-13
1.26399e-13
1.30287e-13
1.27849e-13
1.29466e-13
1.33043e-13
1.34742e-13
1.27142e-13
1.29539e-13
1.27417e-13
1.29417e-13
1.35271e-13
1.34051e-13
1.34413e-13
1.27217e-13
1.3001e-13
1.3012e-13
1.30876e-13
1.32067e-13
1.29924e-13
1.31349e-13
1.34369e-13
1.3879e-13
1.3909e-13
1.33309e-13
1.30145e-13
1.3477e-13
1.36341e-13
1.40025e-13
1.40335e-13
1.38889e-13
1.39092e-13
1.4257e-13
1.45633e-13
1.41025e-13
1.39278e-13
1.38483e-13
1.38513e-13
1.37466e-13
1.3522e-13
1.42328e-13
1.40898e-13
1.43264e-13
1.42209e-13
1.46521e-13
1.40099e-13
1.4062e-13
1.44438e-13
1.46127e-13
1.45601e-13
1.42777e-13
1.35791e-13
1.38784e-13
1.35681e-13
1.37071e-13
1.44664e-13
1.33506e-13
1.46184e-13
1.32873e-13
1.37937e-13
1.39994e-13
1.38983e-13
1.43738e-13
1.38211e-13
1.40119e-13
1.42309e-13
)
;

boundaryField
{
    bottom
    {
        type            calculated;
        value           uniform 0;
    }
    top
    {
        type            calculated;
        value           uniform 1.41176e-13;
    }
    walls
    {
        type            calculated;
        value           uniform 0;
    }
}


// ************************************************************************* //
