/*--------------------------------*- C++ -*----------------------------------*\
| =========                 |                                                 |
| \\      /  F ield         | foam-extend: Open Source CFD                    |
|  \\    /   O peration     | Version:     5.0                                |
|   \\  /    A nd           | Web:         http://www.foam-extend.org         |
|    \\/     M anipulation  |                                                 |
\*---------------------------------------------------------------------------*/
FoamFile
{
    version     2.0;
    format      ascii;
    class       surfaceScalarField;
    location    "5000";
    object      phi.water;
}
// * * * * * * * * * * * * * * * * * * * * * * * * * * * * * * * * * * * * * //

dimensions      [0 3 -1 0 0 0 0];

internalField   nonuniform List<scalar> 
1499
(
2.30826e-13
-2.37279e-13
-1.55463e-13
7.04098e-14
-3.4499e-14
-2.90691e-16
-2.99578e-13
-2.14515e-13
1.6504e-14
-4.23752e-13
-1.80871e-13
-3.12022e-13
-4.28828e-13
-2.52841e-13
-6.39505e-13
-3.75543e-13
-5.37174e-13
-8.57644e-13
-9.09333e-13
-6.62908e-13
-7.63925e-13
-1.33646e-12
-1.17965e-12
-8.70054e-13
-1.32574e-12
-1.34535e-12
-1.42639e-12
-1.70639e-12
-1.61633e-12
-1.81299e-12
-1.80514e-12
-2.12854e-12
-2.1752e-12
-1.93926e-12
-2.57281e-12
-2.30055e-12
-2.83473e-12
-2.66502e-12
-2.92248e-12
-3.27239e-12
-3.07577e-12
-3.14662e-12
-3.85695e-12
-3.54562e-12
-3.65617e-12
-4.0929e-12
-3.74407e-12
-4.67373e-12
-4.35948e-12
-4.51268e-12
-5.23861e-12
-5.02956e-12
-5.05476e-12
-5.49599e-12
-5.55096e-12
-5.91711e-12
-5.91096e-12
-6.22564e-12
-6.53827e-12
-6.70882e-12
-6.57888e-12
-7.14752e-12
-7.57649e-12
-7.62008e-12
-7.42217e-12
-8.11215e-12
-8.01794e-12
-8.86341e-12
-8.69863e-12
-8.78395e-12
-9.33031e-12
-9.26764e-12
-9.76377e-12
-9.85363e-12
-1.05154e-11
-1.03157e-11
-1.07412e-11
-1.12613e-11
-1.1156e-11
-1.17504e-11
-1.17397e-11
-1.21217e-11
-1.23411e-11
-1.32052e-11
-1.28135e-11
-1.31305e-11
-1.40824e-11
-1.36379e-11
-1.44291e-11
-1.4381e-11
-1.51224e-11
-1.53046e-11
-1.55009e-11
-1.57054e-11
-1.64573e-11
-1.64264e-11
-1.68052e-11
-1.73292e-11
-1.7475e-11
-1.77051e-11
-1.84037e-11
-1.8561e-11
-1.91184e-11
-1.90393e-11
-1.97643e-11
-2.04916e-11
-2.03369e-11
-2.08454e-11
-2.10285e-11
-2.17647e-11
-2.18006e-11
-2.22395e-11
-2.29077e-11
-2.33493e-11
-2.31691e-11
-2.4166e-11
-2.42988e-11
-2.46908e-11
-2.52171e-11
-2.56115e-11
-2.58496e-11
-2.66998e-11
-2.6637e-11
-2.72796e-11
-2.78288e-11
-2.79389e-11
-2.88942e-11
-2.89186e-11
-2.95763e-11
-2.96929e-11
-3.02705e-11
-3.10275e-11
-3.13822e-11
-3.19706e-11
-3.19523e-11
-3.27924e-11
-3.31584e-11
-3.37009e-11
-3.40021e-11
-3.46176e-11
-3.50091e-11
-3.61846e-11
-3.57162e-11
-3.65818e-11
-3.72298e-11
-3.72376e-11
-3.83552e-11
-3.85383e-11
-3.92657e-11
-3.95939e-11
-4.0306e-11
-4.06614e-11
-4.09792e-11
-4.2053e-11
-4.19921e-11
-4.2994e-11
-4.34667e-11
-4.3877e-11
-4.45002e-11
-4.48343e-11
-4.54745e-11
-4.61321e-11
-4.67857e-11
-4.71919e-11
-4.77002e-11
-4.86105e-11
-4.89406e-11
-4.97033e-11
-4.97515e-11
-5.08857e-11
-5.12629e-11
-5.18761e-11
-5.27852e-11
-5.27704e-11
-5.39394e-11
-5.40154e-11
-5.49484e-11
-5.56586e-11
-5.61276e-11
-5.67622e-11
-5.74742e-11
-5.78149e-11
-5.8758e-11
-5.89508e-11
-6.0381e-11
-6.03258e-11
-6.12301e-11
-6.17277e-11
-6.27084e-11
-6.29958e-11
-6.39699e-11
-6.44896e-11
-6.50211e-11
-6.58609e-11
-6.64637e-11
-6.71591e-11
-6.76201e-11
-6.87821e-11
-6.87798e-11
-7.00387e-11
-7.03668e-11
-7.16006e-11
-7.17909e-11
-7.25682e-11
-7.36254e-11
-7.39467e-11
-7.45985e-11
-7.54178e-11
-7.63853e-11
-7.704e-11
-7.75607e-11
-7.82309e-11
-7.90538e-11
-8.00343e-11
-8.07359e-11
-8.12412e-11
-8.24041e-11
-8.24687e-11
-8.37134e-11
-8.42317e-11
-8.52092e-11
-8.57829e-11
-8.6773e-11
-8.72957e-11
-8.81015e-11
-8.8808e-11
-8.99406e-11
-9.04938e-11
-9.11397e-11
-9.21246e-11
-9.28479e-11
-9.3584e-11
-9.45628e-11
-9.53199e-11
-9.61338e-11
-9.68886e-11
-9.7408e-11
-9.88008e-11
-9.89466e-11
-1.00436e-10
-1.00864e-10
-1.02026e-10
-1.0231e-10
-1.03762e-10
-1.09376e-10
-1.61759e-10
-2.16389e-10
-2.7098e-10
-3.26454e-10
-3.81572e-10
-4.37395e-10
-4.93367e-10
-5.49981e-10
-6.06924e-10
-6.63899e-10
-7.21133e-10
-7.78375e-10
-8.37268e-10
-8.95308e-10
-9.5421e-10
-1.01262e-09
-1.07221e-09
-1.13232e-09
-1.19264e-09
-1.2528e-09
-1.31291e-09
-1.37321e-09
-1.43602e-09
-1.49615e-09
-1.5594e-09
-1.62133e-09
-1.68406e-09
-1.74596e-09
-1.80938e-09
-1.87274e-09
-1.9375e-09
-2.00003e-09
-2.06555e-09
-2.12856e-09
-2.1964e-09
-2.25946e-09
-2.3258e-09
-2.39161e-09
-2.45747e-09
-2.52281e-09
-2.59068e-09
-2.66006e-09
-2.7237e-09
-2.79301e-09
-2.85783e-09
-2.93e-09
-2.99562e-09
-3.06572e-09
-3.13401e-09
-3.20395e-09
-3.27134e-09
-3.34325e-09
-3.41169e-09
-3.48361e-09
-3.55272e-09
-3.62163e-09
-3.69486e-09
-3.7658e-09
-3.84044e-09
-3.90763e-09
-3.9797e-09
-4.05356e-09
-4.12507e-09
-4.19557e-09
-4.27023e-09
-4.34277e-09
-4.41696e-09
-4.49342e-09
-4.56422e-09
-4.6386e-09
-4.71197e-09
-4.78664e-09
-4.85964e-09
-4.93562e-09
-5.01046e-09
-5.08842e-09
-5.15909e-09
-5.23989e-09
-5.30809e-09
-5.38773e-09
-5.4658e-09
-5.54062e-09
-5.61514e-09
-5.69382e-09
-5.76896e-09
-5.84714e-09
-5.92439e-09
-6.00092e-09
-6.07574e-09
-6.15586e-09
-6.23342e-09
-6.31294e-09
-6.38481e-09
-6.46883e-09
-6.54462e-09
-6.62665e-09
-6.69552e-09
-6.78259e-09
-6.8585e-09
-6.93682e-09
-7.01645e-09
-7.09574e-09
-7.17221e-09
-7.25155e-09
-7.33535e-09
-7.40984e-09
-7.49026e-09
-7.57393e-09
-7.64461e-09
-7.72914e-09
-7.80656e-09
-7.88836e-09
-7.97087e-09
-8.04427e-09
-8.12934e-09
-8.20613e-09
-8.28661e-09
-8.36307e-09
-8.44744e-09
-8.5312e-09
-8.60525e-09
-8.68494e-09
-8.76527e-09
-8.84936e-09
-8.92337e-09
-9.00838e-09
-9.08243e-09
-9.16811e-09
-9.24524e-09
-9.32407e-09
-9.40628e-09
-9.48427e-09
-9.56927e-09
-9.63915e-09
-9.72089e-09
-9.81036e-09
-9.87771e-09
-9.96393e-09
-1.00448e-08
-1.01234e-08
-1.01913e-08
-1.02874e-08
-1.03592e-08
-1.04345e-08
-1.05167e-08
-1.05914e-08
-1.06741e-08
-1.07552e-08
-1.08275e-08
-1.09104e-08
-1.09859e-08
-1.10626e-08
-1.11434e-08
-1.12207e-08
-1.12979e-08
-1.13777e-08
-1.1451e-08
-1.15248e-08
-1.16062e-08
-1.1681e-08
-1.17612e-08
-1.18376e-08
-1.19066e-08
-1.19825e-08
-1.2064e-08
-1.21397e-08
-1.22099e-08
-1.22859e-08
-1.23618e-08
-1.24335e-08
-1.25112e-08
-1.25849e-08
-1.26578e-08
-1.27297e-08
-1.28031e-08
-1.28806e-08
-1.2948e-08
-1.30162e-08
-1.30952e-08
-1.31671e-08
-1.32339e-08
-1.33056e-08
-1.3381e-08
-1.34453e-08
-1.35169e-08
-1.35879e-08
-1.3658e-08
-1.37204e-08
-1.37987e-08
-1.38601e-08
-1.39289e-08
-1.39945e-08
-1.4066e-08
-1.41298e-08
-1.4192e-08
-1.42699e-08
-1.43246e-08
-1.43912e-08
-1.44595e-08
-1.45211e-08
-1.45853e-08
-1.46489e-08
-1.47137e-08
-1.47711e-08
-1.48338e-08
-1.48973e-08
-1.49574e-08
-1.5018e-08
-1.50784e-08
-1.51377e-08
-1.51965e-08
-1.52502e-08
-1.5313e-08
-1.53738e-08
-1.54251e-08
-1.5481e-08
-1.55408e-08
-1.55912e-08
-1.56509e-08
-1.57031e-08
-1.57504e-08
-1.58133e-08
-1.58586e-08
-1.59136e-08
-1.59631e-08
-1.60209e-08
-1.60649e-08
-1.61096e-08
-1.61643e-08
-1.62117e-08
-1.62568e-08
-1.63025e-08
-1.6351e-08
-1.64e-08
-1.64386e-08
-1.64913e-08
-1.65257e-08
-1.65716e-08
-1.6613e-08
-1.66527e-08
-1.66992e-08
-1.67373e-08
-1.67781e-08
-1.68082e-08
-1.68529e-08
-1.68903e-08
-1.69278e-08
-1.69574e-08
-1.69986e-08
-1.70305e-08
-1.70647e-08
-1.70944e-08
-1.71277e-08
-1.71595e-08
-1.71882e-08
-1.72175e-08
-1.72496e-08
-1.72731e-08
-1.73024e-08
-1.73279e-08
-1.7356e-08
-1.7374e-08
-1.74035e-08
-1.74251e-08
-1.74463e-08
-1.7469e-08
-1.74874e-08
-1.75042e-08
-1.75293e-08
-1.75376e-08
-1.75588e-08
-1.75829e-08
-1.75906e-08
-1.7602e-08
-1.76171e-08
-1.76317e-08
-1.76404e-08
-1.76474e-08
-1.7663e-08
-1.76733e-08
-1.76728e-08
-1.76806e-08
-1.76934e-08
-1.76917e-08
-1.76932e-08
-1.77024e-08
-1.7699e-08
-1.77014e-08
-1.77032e-08
-1.76948e-08
-1.77007e-08
-1.76893e-08
-1.76909e-08
-1.7686e-08
-1.76723e-08
-1.76715e-08
-1.76603e-08
-1.76503e-08
-1.76449e-08
-1.76281e-08
-1.76136e-08
-1.76007e-08
-1.75878e-08
-1.75701e-08
-1.75503e-08
-1.75368e-08
-1.75163e-08
-1.74971e-08
-1.74735e-08
-1.74501e-08
-1.74264e-08
-1.74066e-08
-1.7373e-08
-1.73515e-08
-1.73201e-08
-1.72888e-08
-1.72575e-08
-1.72326e-08
-1.71984e-08
-1.71588e-08
-1.71245e-08
-1.70873e-08
-1.70549e-08
-1.70116e-08
-1.69746e-08
-1.69308e-08
-1.68901e-08
-1.68459e-08
-1.67997e-08
-1.67556e-08
-1.67084e-08
-1.66577e-08
-1.66088e-08
-1.65571e-08
-1.65085e-08
-1.64493e-08
-1.63997e-08
-1.63389e-08
-1.62836e-08
-1.62283e-08
-1.6165e-08
-1.61044e-08
-1.60465e-08
-1.59793e-08
-1.59147e-08
-1.58463e-08
-1.57825e-08
-1.57117e-08
-1.56455e-08
-1.55724e-08
-1.5497e-08
-1.54263e-08
-1.53486e-08
-1.52753e-08
-1.51945e-08
-1.51157e-08
-1.50405e-08
-1.4956e-08
-1.48688e-08
-1.47884e-08
-1.47042e-08
-1.46109e-08
-1.45287e-08
-1.44364e-08
-1.43474e-08
-1.42537e-08
-1.41578e-08
-1.40621e-08
-1.39718e-08
-1.38673e-08
-1.37707e-08
-1.36712e-08
-1.35709e-08
-1.34658e-08
-1.33569e-08
-1.32523e-08
-1.31497e-08
-1.30393e-08
-1.293e-08
-1.28133e-08
-1.27063e-08
-1.25866e-08
-1.24756e-08
-1.23571e-08
-1.22371e-08
-1.21172e-08
-1.19966e-08
-1.1879e-08
-1.17454e-08
-1.16266e-08
-1.14964e-08
-1.13729e-08
-1.12381e-08
-1.11076e-08
-1.09794e-08
-1.08379e-08
-1.07076e-08
-1.05665e-08
-1.04333e-08
-1.02925e-08
-1.01508e-08
-1.00077e-08
-9.86475e-09
-9.71987e-09
-9.56811e-09
-9.42846e-09
-9.27202e-09
-9.12539e-09
-8.96716e-09
-8.81597e-09
-8.66426e-09
-8.50369e-09
-8.34651e-09
-8.18508e-09
-8.02569e-09
-7.864e-09
-7.69825e-09
-7.53482e-09
-7.36268e-09
-7.19993e-09
-7.02689e-09
-6.85843e-09
-6.6861e-09
-6.50538e-09
-6.33526e-09
-6.16072e-09
-5.97815e-09
-5.80187e-09
-5.61603e-09
-5.4363e-09
-5.25208e-09
-5.06489e-09
-4.87694e-09
-4.68935e-09
-4.4974e-09
-4.3102e-09
-4.11815e-09
-3.91617e-09
-3.72682e-09
-3.52853e-09
-3.32938e-09
-3.12829e-09
-2.92897e-09
-2.72137e-09
-2.52521e-09
-2.31153e-09
-2.10621e-09
-1.89921e-09
-1.68846e-09
-1.47465e-09
-1.26348e-09
-1.04955e-09
-8.3453e-10
-6.14761e-10
-3.97259e-10
-1.74875e-10
4.42079e-11
2.69663e-10
4.9162e-10
7.19239e-10
9.46372e-10
1.1748e-09
1.40658e-09
1.63621e-09
1.87239e-09
2.10305e-09
2.34044e-09
2.57728e-09
2.81632e-09
3.06012e-09
3.29778e-09
3.53911e-09
3.78913e-09
4.03069e-09
4.28006e-09
4.52516e-09
4.77977e-09
5.02724e-09
5.28447e-09
5.53754e-09
5.79141e-09
6.05124e-09
6.30699e-09
6.56772e-09
6.82941e-09
7.09088e-09
7.35672e-09
7.62258e-09
7.88831e-09
8.15331e-09
8.42473e-09
8.69664e-09
8.97347e-09
9.24059e-09
9.51514e-09
9.79538e-09
1.00699e-08
1.03542e-08
1.0631e-08
1.09128e-08
1.11948e-08
1.14829e-08
1.17702e-08
1.20537e-08
1.23413e-08
1.26341e-08
1.29267e-08
1.32172e-08
1.3511e-08
1.38051e-08
1.41025e-08
1.43997e-08
1.47052e-08
1.49992e-08
1.53024e-08
1.56064e-08
1.59102e-08
1.62187e-08
1.65231e-08
1.68321e-08
1.7146e-08
1.74518e-08
1.77654e-08
1.808e-08
1.83963e-08
1.87129e-08
1.90275e-08
1.93469e-08
1.96679e-08
1.99891e-08
2.03135e-08
2.06357e-08
2.0959e-08
2.12889e-08
2.16167e-08
2.19465e-08
2.22714e-08
2.26062e-08
2.29395e-08
2.32736e-08
2.36113e-08
2.39448e-08
2.42813e-08
2.46232e-08
2.49608e-08
2.53041e-08
2.5648e-08
2.59878e-08
2.63358e-08
2.66821e-08
2.70296e-08
2.73756e-08
2.77288e-08
2.80776e-08
2.84318e-08
2.87861e-08
2.91385e-08
2.94962e-08
2.98499e-08
3.02129e-08
3.05696e-08
3.09321e-08
3.12921e-08
3.16551e-08
3.20185e-08
3.2387e-08
3.27497e-08
3.31198e-08
3.34852e-08
3.38586e-08
3.42306e-08
3.45998e-08
3.49717e-08
3.53485e-08
3.5725e-08
3.60994e-08
3.64785e-08
3.68563e-08
3.72384e-08
3.76159e-08
3.79978e-08
3.83851e-08
3.87668e-08
3.91546e-08
3.95402e-08
3.99279e-08
4.03158e-08
4.07043e-08
4.10984e-08
4.14869e-08
4.18826e-08
4.22754e-08
4.26733e-08
4.3068e-08
4.34611e-08
4.38635e-08
4.42617e-08
4.46609e-08
4.50645e-08
4.5469e-08
4.58664e-08
4.62752e-08
4.66788e-08
4.70865e-08
4.74949e-08
4.7901e-08
4.83128e-08
4.8724e-08
4.9131e-08
4.95478e-08
4.99609e-08
5.03726e-08
5.07882e-08
5.12068e-08
5.16248e-08
5.2042e-08
5.24619e-08
5.2882e-08
5.33027e-08
5.37256e-08
5.41501e-08
5.45708e-08
5.50005e-08
5.5424e-08
5.58499e-08
5.62821e-08
5.67058e-08
5.71386e-08
5.75711e-08
5.79977e-08
5.84329e-08
5.88657e-08
5.93015e-08
5.97338e-08
6.01714e-08
6.06094e-08
6.10465e-08
6.14867e-08
6.19284e-08
6.23651e-08
6.28083e-08
6.32486e-08
6.36942e-08
6.41362e-08
6.45817e-08
6.50272e-08
6.54751e-08
6.59205e-08
6.63722e-08
6.68228e-08
6.72677e-08
6.77211e-08
6.8171e-08
6.8626e-08
6.90774e-08
6.95343e-08
6.99862e-08
7.04446e-08
7.08986e-08
7.13577e-08
7.18149e-08
7.22745e-08
7.27359e-08
7.31937e-08
7.36574e-08
7.41172e-08
7.45823e-08
7.50458e-08
7.55094e-08
7.59758e-08
7.64418e-08
7.69084e-08
7.7374e-08
7.78452e-08
7.83152e-08
7.87815e-08
7.92519e-08
7.97281e-08
8.01955e-08
8.06703e-08
8.11426e-08
8.16156e-08
8.20967e-08
8.25635e-08
8.30464e-08
8.35237e-08
8.4e-08
8.44756e-08
8.49585e-08
8.54378e-08
8.59185e-08
8.63972e-08
8.68818e-08
8.73669e-08
8.78444e-08
8.83312e-08
8.88181e-08
8.93017e-08
8.97875e-08
9.02737e-08
9.07643e-08
9.12508e-08
9.17378e-08
9.22292e-08
9.27166e-08
9.3211e-08
9.37007e-08
9.41924e-08
9.46841e-08
9.51798e-08
9.56709e-08
9.61675e-08
9.66619e-08
9.71573e-08
9.76515e-08
9.81538e-08
9.86466e-08
9.9146e-08
9.9645e-08
1.00145e-07
1.00646e-07
1.01143e-07
1.01643e-07
1.02152e-07
1.02649e-07
1.03154e-07
1.03658e-07
1.04158e-07
1.04663e-07
1.05173e-07
1.05676e-07
1.06182e-07
1.06692e-07
1.07194e-07
1.07707e-07
1.08214e-07
1.0872e-07
1.09234e-07
1.0974e-07
1.10257e-07
1.10764e-07
1.11274e-07
1.11788e-07
1.12299e-07
1.12818e-07
1.13327e-07
1.13845e-07
1.14359e-07
1.14873e-07
1.15386e-07
1.15908e-07
1.1642e-07
1.16939e-07
1.17461e-07
1.17979e-07
1.18492e-07
1.19015e-07
1.19534e-07
1.20056e-07
1.20577e-07
1.21096e-07
1.21619e-07
1.2214e-07
1.22665e-07
1.23189e-07
1.23713e-07
1.24231e-07
1.24761e-07
1.25284e-07
1.2581e-07
1.26337e-07
1.26862e-07
1.2739e-07
1.27916e-07
1.28443e-07
1.28971e-07
1.29504e-07
1.30027e-07
1.30563e-07
1.31089e-07
1.31619e-07
1.32151e-07
1.32682e-07
1.33212e-07
1.33744e-07
1.34277e-07
1.34811e-07
1.35343e-07
1.35878e-07
1.36413e-07
1.36945e-07
1.37477e-07
1.38018e-07
1.3855e-07
1.39086e-07
1.39626e-07
1.4016e-07
1.40697e-07
1.41233e-07
1.41772e-07
1.42313e-07
1.4285e-07
1.43387e-07
1.43929e-07
1.44466e-07
1.45007e-07
1.4555e-07
1.46089e-07
1.46627e-07
1.47176e-07
1.4771e-07
1.48259e-07
1.48798e-07
1.49341e-07
1.49886e-07
1.50427e-07
1.50972e-07
1.51518e-07
1.5206e-07
1.52604e-07
1.5315e-07
1.53697e-07
1.54243e-07
1.54789e-07
1.55335e-07
1.55882e-07
1.56431e-07
1.56976e-07
1.57525e-07
1.58069e-07
1.58623e-07
1.59169e-07
1.59717e-07
1.6027e-07
1.60819e-07
1.61369e-07
1.61916e-07
1.62469e-07
1.63019e-07
1.63571e-07
1.64119e-07
1.64677e-07
1.65225e-07
1.65779e-07
1.6633e-07
1.66883e-07
1.67436e-07
1.6799e-07
1.68539e-07
1.69099e-07
1.69651e-07
1.70206e-07
1.70761e-07
1.71315e-07
1.71871e-07
1.72424e-07
1.72981e-07
1.73537e-07
1.74094e-07
1.74653e-07
1.75205e-07
1.75765e-07
1.76321e-07
1.7688e-07
1.77437e-07
1.77993e-07
1.78553e-07
1.79111e-07
1.79671e-07
1.8023e-07
1.80786e-07
1.81351e-07
1.81906e-07
1.82466e-07
1.83029e-07
1.83587e-07
1.84146e-07
1.84709e-07
1.85272e-07
1.85831e-07
1.86391e-07
1.86955e-07
1.87515e-07
1.88079e-07
1.88641e-07
1.89202e-07
1.89765e-07
1.90328e-07
1.90891e-07
1.91456e-07
1.92018e-07
1.92584e-07
1.93145e-07
1.93708e-07
1.94275e-07
1.94838e-07
1.95404e-07
1.95971e-07
1.96533e-07
1.97097e-07
1.97666e-07
1.98229e-07
1.98798e-07
1.9936e-07
1.9993e-07
2.00496e-07
2.01061e-07
2.01627e-07
2.02196e-07
2.02762e-07
2.0333e-07
2.03898e-07
2.04464e-07
2.05033e-07
2.056e-07
2.0617e-07
2.06737e-07
2.07305e-07
2.07876e-07
2.08444e-07
2.09013e-07
2.09579e-07
2.10154e-07
2.1072e-07
2.11292e-07
2.1186e-07
2.12431e-07
2.13002e-07
2.13569e-07
2.14144e-07
2.14712e-07
2.15284e-07
2.15856e-07
2.16426e-07
2.16996e-07
2.17568e-07
2.18141e-07
2.18714e-07
2.19284e-07
2.19857e-07
2.20429e-07
2.21002e-07
2.21574e-07
2.22147e-07
2.22719e-07
2.23295e-07
2.23865e-07
2.24439e-07
2.25014e-07
2.25586e-07
2.26161e-07
2.26736e-07
2.2731e-07
2.27883e-07
2.28458e-07
2.29033e-07
2.29606e-07
2.30183e-07
2.30758e-07
2.31332e-07
2.3191e-07
2.32482e-07
2.3306e-07
2.33636e-07
2.34211e-07
2.34786e-07
2.35366e-07
2.35941e-07
2.36517e-07
2.37092e-07
2.37672e-07
2.3825e-07
2.38824e-07
2.39403e-07
2.39981e-07
2.40559e-07
2.41135e-07
2.41714e-07
2.42295e-07
2.42872e-07
2.43451e-07
2.44029e-07
2.44608e-07
2.45187e-07
2.45768e-07
2.46345e-07
2.46925e-07
2.47508e-07
2.48087e-07
2.48666e-07
2.49247e-07
2.49828e-07
2.50409e-07
2.50989e-07
2.51571e-07
2.52154e-07
2.52735e-07
2.53316e-07
2.53899e-07
2.54481e-07
2.55065e-07
2.55644e-07
2.5623e-07
2.56815e-07
2.57397e-07
2.57981e-07
2.58565e-07
2.5915e-07
2.59734e-07
2.60318e-07
2.60905e-07
2.6149e-07
2.62076e-07
2.62662e-07
2.63248e-07
2.63836e-07
2.64421e-07
2.65009e-07
2.65597e-07
2.66187e-07
2.66772e-07
2.67363e-07
2.67951e-07
2.68542e-07
2.6913e-07
2.69722e-07
2.70312e-07
2.70903e-07
2.71496e-07
2.72087e-07
2.7268e-07
2.73274e-07
2.73866e-07
2.74462e-07
2.75055e-07
2.7565e-07
2.76246e-07
2.76842e-07
2.7744e-07
2.78037e-07
2.78635e-07
2.79235e-07
2.79834e-07
2.80434e-07
2.81037e-07
2.81637e-07
2.8224e-07
2.82844e-07
2.83447e-07
2.84053e-07
2.8466e-07
2.85266e-07
2.85875e-07
2.86485e-07
2.87093e-07
2.87705e-07
2.88318e-07
2.88932e-07
2.89546e-07
2.90162e-07
2.9078e-07
2.91399e-07
2.92019e-07
2.92642e-07
2.93267e-07
2.93889e-07
2.94518e-07
2.95147e-07
2.95776e-07
2.96411e-07
2.97044e-07
2.97682e-07
2.98321e-07
2.98962e-07
2.99606e-07
3.00253e-07
3.00903e-07
3.01555e-07
3.02209e-07
3.02868e-07
3.0353e-07
3.04195e-07
3.04864e-07
3.05536e-07
3.06212e-07
3.06895e-07
3.07579e-07
3.0827e-07
3.08964e-07
3.09666e-07
3.10371e-07
3.11084e-07
3.11803e-07
3.12528e-07
3.13261e-07
3.14002e-07
3.1475e-07
3.15508e-07
3.16273e-07
3.17054e-07
3.17834e-07
3.18616e-07
3.19395e-07
3.20177e-07
3.20956e-07
3.21735e-07
3.22515e-07
3.23293e-07
3.24071e-07
3.24847e-07
3.25624e-07
3.26399e-07
3.27174e-07
3.27949e-07
3.28723e-07
3.29495e-07
3.30267e-07
3.31038e-07
3.31809e-07
3.32578e-07
3.33347e-07
3.34116e-07
3.34883e-07
3.35649e-07
3.36414e-07
3.3718e-07
3.37944e-07
3.38705e-07
3.39468e-07
3.40228e-07
3.40988e-07
3.41747e-07
3.42504e-07
3.43261e-07
3.44015e-07
3.44769e-07
3.45522e-07
3.46273e-07
3.47022e-07
3.47771e-07
3.48517e-07
3.49262e-07
3.50005e-07
3.50747e-07
3.51486e-07
3.52224e-07
3.52959e-07
3.53692e-07
3.54422e-07
3.55151e-07
3.55876e-07
3.56599e-07
3.57319e-07
3.58035e-07
3.58748e-07
3.59457e-07
3.60163e-07
3.60864e-07
3.61562e-07
3.62254e-07
3.62942e-07
3.63623e-07
3.643e-07
3.6497e-07
3.65634e-07
3.66292e-07
3.66941e-07
3.67582e-07
3.68215e-07
3.68841e-07
3.69454e-07
3.70058e-07
3.70651e-07
3.71231e-07
3.718e-07
3.72353e-07
3.72894e-07
3.73417e-07
3.73923e-07
3.74413e-07
3.74881e-07
3.75329e-07
3.75755e-07
3.76157e-07
3.76533e-07
3.76881e-07
3.77199e-07
3.77486e-07
3.77739e-07
3.77954e-07
3.78132e-07
3.78266e-07
3.78356e-07
3.78397e-07
3.78388e-07
3.78321e-07
3.78196e-07
3.78007e-07
3.7775e-07
3.77421e-07
3.77013e-07
3.76522e-07
3.75942e-07
3.75267e-07
3.7449e-07
3.73604e-07
3.72603e-07
3.71478e-07
3.70221e-07
3.68824e-07
3.67279e-07
3.65574e-07
3.637e-07
3.61646e-07
3.59404e-07
3.56959e-07
3.54302e-07
3.51419e-07
3.48297e-07
3.44925e-07
3.41289e-07
3.37375e-07
3.33169e-07
3.28657e-07
3.23825e-07
3.1866e-07
3.13148e-07
3.07274e-07
3.01027e-07
2.94393e-07
2.87361e-07
2.79919e-07
2.7206e-07
2.63772e-07
2.5505e-07
2.4589e-07
2.36287e-07
2.26241e-07
2.15753e-07
2.04825e-07
1.93468e-07
1.81687e-07
1.69497e-07
1.56915e-07
1.43954e-07
1.30645e-07
1.17003e-07
1.03063e-07
8.88526e-08
7.44049e-08
5.97577e-08
4.49461e-08
3.00107e-08
1.49927e-08
)
;

boundaryField
{
    bottom
    {
        type            fixedValue;
        value           uniform 0;
    }
    top
    {
        type            calculated;
        value           uniform -6.79569e-11;
    }
    walls
    {
        type            fixedValue;
        value           uniform 0;
    }
}


// ************************************************************************* //
