/*--------------------------------*- C++ -*----------------------------------*\
| =========                 |                                                 |
| \\      /  F ield         | foam-extend: Open Source CFD                    |
|  \\    /   O peration     | Version:     5.0                                |
|   \\  /    A nd           | Web:         http://www.foam-extend.org         |
|    \\/     M anipulation  |                                                 |
\*---------------------------------------------------------------------------*/
FoamFile
{
    version     2.0;
    format      ascii;
    class       surfaceScalarField;
    location    "5000";
    object      phi.gas;
}
// * * * * * * * * * * * * * * * * * * * * * * * * * * * * * * * * * * * * * //

dimensions      [0 3 -1 0 0 0 0];

internalField   nonuniform List<scalar> 
1499
(
1.0185e-09
1.88384e-09
2.67012e-09
3.43154e-09
4.17833e-09
4.91535e-09
5.64534e-09
6.37004e-09
7.09059e-09
7.8078e-09
8.52228e-09
9.23445e-09
9.94468e-09
1.06532e-08
1.13603e-08
1.20661e-08
1.27708e-08
1.34744e-08
1.41772e-08
1.48791e-08
1.55803e-08
1.62808e-08
1.69807e-08
1.768e-08
1.83787e-08
1.9077e-08
1.97749e-08
2.04723e-08
2.11694e-08
2.1866e-08
2.25624e-08
2.32584e-08
2.39541e-08
2.46495e-08
2.53446e-08
2.60395e-08
2.67342e-08
2.74286e-08
2.81228e-08
2.88168e-08
2.95107e-08
3.02043e-08
3.08977e-08
3.1591e-08
3.22841e-08
3.29771e-08
3.36699e-08
3.43625e-08
3.5055e-08
3.57474e-08
3.64397e-08
3.71318e-08
3.78239e-08
3.85158e-08
3.92076e-08
3.98993e-08
4.05909e-08
4.12824e-08
4.19738e-08
4.26651e-08
4.33563e-08
4.40474e-08
4.47385e-08
4.54295e-08
4.61204e-08
4.68112e-08
4.75019e-08
4.81926e-08
4.88832e-08
4.95737e-08
5.02642e-08
5.09546e-08
5.1645e-08
5.23352e-08
5.30255e-08
5.37156e-08
5.44057e-08
5.50958e-08
5.57858e-08
5.64758e-08
5.71657e-08
5.78555e-08
5.85453e-08
5.92351e-08
5.99248e-08
6.06145e-08
6.13041e-08
6.19937e-08
6.26833e-08
6.33728e-08
6.40622e-08
6.47517e-08
6.5441e-08
6.61304e-08
6.68197e-08
6.7509e-08
6.81982e-08
6.88874e-08
6.95766e-08
7.02658e-08
7.09549e-08
7.1644e-08
7.2333e-08
7.30221e-08
7.3711e-08
7.44e-08
7.50889e-08
7.57778e-08
7.64667e-08
7.71556e-08
7.78444e-08
7.85332e-08
7.9222e-08
7.99107e-08
8.05995e-08
8.12882e-08
8.19769e-08
8.26655e-08
8.33541e-08
8.40428e-08
8.47314e-08
8.54199e-08
8.61085e-08
8.6797e-08
8.74855e-08
8.8174e-08
8.88625e-08
8.95509e-08
9.02393e-08
9.09278e-08
9.16161e-08
9.23045e-08
9.29929e-08
9.36812e-08
9.43695e-08
9.50578e-08
9.57461e-08
9.64344e-08
9.71227e-08
9.78109e-08
9.84991e-08
9.91873e-08
9.98755e-08
1.00564e-07
1.01252e-07
1.0194e-07
1.02628e-07
1.03316e-07
1.04004e-07
1.04692e-07
1.05381e-07
1.06069e-07
1.06757e-07
1.07445e-07
1.08133e-07
1.08821e-07
1.09509e-07
1.10197e-07
1.10885e-07
1.11573e-07
1.12261e-07
1.12949e-07
1.13637e-07
1.14324e-07
1.15012e-07
1.157e-07
1.16388e-07
1.17076e-07
1.17764e-07
1.18452e-07
1.1914e-07
1.19827e-07
1.20515e-07
1.21203e-07
1.21891e-07
1.22579e-07
1.23266e-07
1.23954e-07
1.24642e-07
1.2533e-07
1.26018e-07
1.26705e-07
1.27393e-07
1.28081e-07
1.28768e-07
1.29456e-07
1.30144e-07
1.30832e-07
1.31519e-07
1.32207e-07
1.32895e-07
1.33582e-07
1.3427e-07
1.34958e-07
1.35645e-07
1.36333e-07
1.37021e-07
1.37708e-07
1.38396e-07
1.39083e-07
1.39771e-07
1.40459e-07
1.41146e-07
1.41834e-07
1.42521e-07
1.43209e-07
1.43896e-07
1.44584e-07
1.45272e-07
1.45959e-07
1.46647e-07
1.47334e-07
1.48022e-07
1.48709e-07
1.49397e-07
1.50084e-07
1.50772e-07
1.51459e-07
1.52147e-07
1.52834e-07
1.53522e-07
1.54209e-07
1.54897e-07
1.55584e-07
1.56272e-07
1.56959e-07
1.57647e-07
1.58334e-07
1.59021e-07
1.59709e-07
1.60396e-07
1.61084e-07
1.61771e-07
1.62459e-07
1.63146e-07
1.63833e-07
1.64521e-07
1.65208e-07
1.65896e-07
1.66583e-07
1.6727e-07
1.67933e-07
1.67594e-07
1.34779e-07
2.4479e-08
1.11003e-08
7.75664e-09
6.55883e-09
5.94469e-09
5.57111e-09
5.3198e-09
5.1391e-09
5.00286e-09
4.89642e-09
4.81092e-09
4.74072e-09
4.682e-09
4.63214e-09
4.58925e-09
4.55195e-09
4.51918e-09
4.49015e-09
4.46423e-09
4.44094e-09
4.41988e-09
4.40074e-09
4.38324e-09
4.36715e-09
4.35233e-09
4.33859e-09
4.32582e-09
4.31391e-09
4.30276e-09
4.29229e-09
4.28243e-09
4.27311e-09
4.2643e-09
4.25592e-09
4.24796e-09
4.24035e-09
4.23309e-09
4.22612e-09
4.21944e-09
4.21301e-09
4.20682e-09
4.20083e-09
4.19505e-09
4.18945e-09
4.184e-09
4.17871e-09
4.17356e-09
4.16853e-09
4.16362e-09
4.15882e-09
4.15412e-09
4.14952e-09
4.14499e-09
4.14055e-09
4.13618e-09
4.13187e-09
4.12762e-09
4.12342e-09
4.11928e-09
4.11518e-09
4.11114e-09
4.10711e-09
4.10312e-09
4.09917e-09
4.09524e-09
4.09133e-09
4.08744e-09
4.08358e-09
4.07971e-09
4.07588e-09
4.07205e-09
4.06823e-09
4.06442e-09
4.06061e-09
4.0568e-09
4.05299e-09
4.04919e-09
4.04538e-09
4.04156e-09
4.03776e-09
4.03393e-09
4.0301e-09
4.02625e-09
4.0224e-09
4.01853e-09
4.01465e-09
4.01076e-09
4.00686e-09
4.00295e-09
3.999e-09
3.99504e-09
3.99106e-09
3.98706e-09
3.98303e-09
3.97899e-09
3.97491e-09
3.97082e-09
3.96671e-09
3.96257e-09
3.95841e-09
3.95423e-09
3.95002e-09
3.94578e-09
3.94152e-09
3.93722e-09
3.93289e-09
3.92854e-09
3.92417e-09
3.91975e-09
3.91533e-09
3.91084e-09
3.90634e-09
3.90178e-09
3.89721e-09
3.89261e-09
3.88796e-09
3.88329e-09
3.87859e-09
3.87385e-09
3.86906e-09
3.86424e-09
3.8594e-09
3.85453e-09
3.8496e-09
3.84465e-09
3.83967e-09
3.83465e-09
3.82959e-09
3.82447e-09
3.81933e-09
3.81416e-09
3.80891e-09
3.80364e-09
3.79835e-09
3.79302e-09
3.78763e-09
3.7822e-09
3.77676e-09
3.77123e-09
3.7657e-09
3.76012e-09
3.7545e-09
3.74881e-09
3.7431e-09
3.73736e-09
3.73156e-09
3.72573e-09
3.71985e-09
3.71392e-09
3.70797e-09
3.70197e-09
3.6959e-09
3.68982e-09
3.68367e-09
3.67749e-09
3.67128e-09
3.66502e-09
3.65872e-09
3.65238e-09
3.64596e-09
3.63953e-09
3.63303e-09
3.62651e-09
3.61996e-09
3.61334e-09
3.60666e-09
3.59995e-09
3.5932e-09
3.5864e-09
3.57957e-09
3.57267e-09
3.56572e-09
3.55874e-09
3.5517e-09
3.54463e-09
3.53751e-09
3.53034e-09
3.52314e-09
3.5159e-09
3.50859e-09
3.50124e-09
3.49385e-09
3.4864e-09
3.47892e-09
3.4714e-09
3.46382e-09
3.45618e-09
3.4485e-09
3.44078e-09
3.43301e-09
3.4252e-09
3.41734e-09
3.40943e-09
3.40144e-09
3.39344e-09
3.38539e-09
3.37728e-09
3.36915e-09
3.36094e-09
3.35269e-09
3.34441e-09
3.33608e-09
3.32769e-09
3.31927e-09
3.31079e-09
3.30225e-09
3.29368e-09
3.28507e-09
3.2764e-09
3.26769e-09
3.25893e-09
3.25013e-09
3.24127e-09
3.23236e-09
3.2234e-09
3.21441e-09
3.20538e-09
3.19628e-09
3.18715e-09
3.17796e-09
3.16873e-09
3.15948e-09
3.15014e-09
3.14078e-09
3.13134e-09
3.12188e-09
3.11235e-09
3.10281e-09
3.09322e-09
3.08355e-09
3.07385e-09
3.06411e-09
3.05433e-09
3.04448e-09
3.03459e-09
3.02467e-09
3.01469e-09
3.0047e-09
2.99462e-09
2.9845e-09
2.97434e-09
2.96412e-09
2.95387e-09
2.94357e-09
2.93324e-09
2.92284e-09
2.9124e-09
2.9019e-09
2.89139e-09
2.88081e-09
2.87021e-09
2.85954e-09
2.84885e-09
2.8381e-09
2.82731e-09
2.81647e-09
2.80558e-09
2.79466e-09
2.7837e-09
2.77268e-09
2.7616e-09
2.7505e-09
2.73936e-09
2.72816e-09
2.71694e-09
2.70566e-09
2.69435e-09
2.68298e-09
2.67159e-09
2.66011e-09
2.64863e-09
2.63708e-09
2.62548e-09
2.61389e-09
2.60224e-09
2.59053e-09
2.57879e-09
2.56702e-09
2.55519e-09
2.5433e-09
2.5314e-09
2.51946e-09
2.50747e-09
2.49543e-09
2.48336e-09
2.47125e-09
2.45909e-09
2.44691e-09
2.43468e-09
2.42241e-09
2.41013e-09
2.39775e-09
2.38538e-09
2.37294e-09
2.36049e-09
2.34799e-09
2.33544e-09
2.32286e-09
2.31024e-09
2.29758e-09
2.2849e-09
2.27219e-09
2.25944e-09
2.24662e-09
2.23379e-09
2.2209e-09
2.20797e-09
2.19502e-09
2.18202e-09
2.16901e-09
2.15594e-09
2.14286e-09
2.12972e-09
2.11659e-09
2.10338e-09
2.09016e-09
2.07689e-09
2.06358e-09
2.05023e-09
2.03687e-09
2.0235e-09
2.01005e-09
1.99658e-09
1.98307e-09
1.96956e-09
1.95598e-09
1.9424e-09
1.92876e-09
1.91511e-09
1.90144e-09
1.88772e-09
1.87398e-09
1.86021e-09
1.84641e-09
1.83257e-09
1.8187e-09
1.80482e-09
1.79091e-09
1.77696e-09
1.76296e-09
1.74894e-09
1.73491e-09
1.72082e-09
1.70673e-09
1.6926e-09
1.67846e-09
1.66429e-09
1.65008e-09
1.63585e-09
1.62159e-09
1.60732e-09
1.59303e-09
1.57869e-09
1.56433e-09
1.54993e-09
1.53554e-09
1.5211e-09
1.50664e-09
1.49218e-09
1.47769e-09
1.46316e-09
1.44863e-09
1.43408e-09
1.41948e-09
1.4049e-09
1.39027e-09
1.37562e-09
1.36097e-09
1.34627e-09
1.33156e-09
1.31684e-09
1.30209e-09
1.28733e-09
1.27254e-09
1.25776e-09
1.24295e-09
1.22809e-09
1.21323e-09
1.19835e-09
1.18347e-09
1.16858e-09
1.15365e-09
1.13873e-09
1.12376e-09
1.10879e-09
1.0938e-09
1.07881e-09
1.06379e-09
1.04877e-09
1.03374e-09
1.01867e-09
1.00361e-09
9.88516e-10
9.7344e-10
9.58331e-10
9.43216e-10
9.28113e-10
9.12964e-10
8.97817e-10
8.82649e-10
8.67471e-10
8.52298e-10
8.371e-10
8.21903e-10
8.06691e-10
7.91483e-10
7.7623e-10
7.61011e-10
7.45767e-10
7.30536e-10
7.15282e-10
7e-10
6.84747e-10
6.69467e-10
6.54199e-10
6.38922e-10
6.23619e-10
6.08332e-10
5.93049e-10
5.77768e-10
5.62445e-10
5.4715e-10
5.31825e-10
5.16529e-10
5.01231e-10
4.85891e-10
4.70547e-10
4.55249e-10
4.39926e-10
4.24619e-10
4.093e-10
3.93985e-10
3.78673e-10
3.63372e-10
3.48051e-10
3.32734e-10
3.17412e-10
3.02101e-10
2.86825e-10
2.71497e-10
2.56192e-10
2.40893e-10
2.256e-10
2.10319e-10
1.95037e-10
1.7975e-10
1.64503e-10
1.49224e-10
1.33958e-10
1.18712e-10
1.03475e-10
8.82151e-11
7.29759e-11
5.77674e-11
4.25633e-11
2.73716e-11
1.21829e-11
-3.02227e-12
-1.81961e-11
-3.33653e-11
-4.85123e-11
-6.36515e-11
-7.87658e-11
-9.3889e-11
-1.08998e-10
-1.24102e-10
-1.39189e-10
-1.54259e-10
-1.69322e-10
-1.84364e-10
-1.9939e-10
-2.14412e-10
-2.29422e-10
-2.4439e-10
-2.59381e-10
-2.74315e-10
-2.89272e-10
-3.04168e-10
-3.19082e-10
-3.33958e-10
-3.48829e-10
-3.63688e-10
-3.78529e-10
-3.93342e-10
-4.08145e-10
-4.22937e-10
-4.37689e-10
-4.5243e-10
-4.67147e-10
-4.81867e-10
-4.96552e-10
-5.11198e-10
-5.25826e-10
-5.40435e-10
-5.5506e-10
-5.69633e-10
-5.84172e-10
-5.987e-10
-6.13185e-10
-6.2768e-10
-6.42143e-10
-6.5657e-10
-6.70959e-10
-6.85333e-10
-6.99702e-10
-7.14035e-10
-7.28337e-10
-7.42613e-10
-7.56876e-10
-7.71112e-10
-7.8531e-10
-7.99477e-10
-8.13609e-10
-8.27696e-10
-8.41814e-10
-8.55863e-10
-8.69882e-10
-8.83883e-10
-8.97831e-10
-9.11782e-10
-9.25668e-10
-9.39535e-10
-9.53387e-10
-9.67195e-10
-9.8096e-10
-9.94705e-10
-1.00842e-09
-1.02213e-09
-1.03577e-09
-1.04939e-09
-1.06296e-09
-1.0765e-09
-1.09002e-09
-1.1035e-09
-1.11692e-09
-1.13033e-09
-1.1437e-09
-1.15704e-09
-1.17031e-09
-1.18356e-09
-1.1968e-09
-1.20997e-09
-1.22314e-09
-1.23627e-09
-1.24932e-09
-1.26237e-09
-1.27536e-09
-1.28833e-09
-1.30125e-09
-1.31414e-09
-1.32697e-09
-1.33979e-09
-1.35256e-09
-1.36528e-09
-1.37798e-09
-1.39062e-09
-1.40321e-09
-1.41578e-09
-1.42829e-09
-1.44076e-09
-1.45317e-09
-1.46558e-09
-1.47792e-09
-1.49022e-09
-1.50249e-09
-1.5147e-09
-1.52687e-09
-1.53901e-09
-1.5511e-09
-1.56315e-09
-1.57513e-09
-1.58708e-09
-1.599e-09
-1.61086e-09
-1.62265e-09
-1.63443e-09
-1.64615e-09
-1.65784e-09
-1.66947e-09
-1.68104e-09
-1.69259e-09
-1.70405e-09
-1.71548e-09
-1.72687e-09
-1.7382e-09
-1.7495e-09
-1.76075e-09
-1.77194e-09
-1.78309e-09
-1.79416e-09
-1.80522e-09
-1.81618e-09
-1.82713e-09
-1.83802e-09
-1.84887e-09
-1.85967e-09
-1.87038e-09
-1.88107e-09
-1.8917e-09
-1.90226e-09
-1.91278e-09
-1.92327e-09
-1.93368e-09
-1.94405e-09
-1.95436e-09
-1.96462e-09
-1.97484e-09
-1.985e-09
-1.99511e-09
-2.00516e-09
-2.01515e-09
-2.02509e-09
-2.03499e-09
-2.04481e-09
-2.05456e-09
-2.06427e-09
-2.07393e-09
-2.08353e-09
-2.09307e-09
-2.10257e-09
-2.112e-09
-2.12137e-09
-2.13069e-09
-2.13994e-09
-2.14915e-09
-2.1583e-09
-2.16738e-09
-2.17643e-09
-2.18539e-09
-2.19431e-09
-2.2032e-09
-2.212e-09
-2.22074e-09
-2.22942e-09
-2.23804e-09
-2.2466e-09
-2.25509e-09
-2.26353e-09
-2.2719e-09
-2.28022e-09
-2.28851e-09
-2.29673e-09
-2.30488e-09
-2.31296e-09
-2.32099e-09
-2.32896e-09
-2.33685e-09
-2.34468e-09
-2.35245e-09
-2.36016e-09
-2.36782e-09
-2.37544e-09
-2.38297e-09
-2.39045e-09
-2.39785e-09
-2.4052e-09
-2.41248e-09
-2.41972e-09
-2.42688e-09
-2.43398e-09
-2.44101e-09
-2.44798e-09
-2.45488e-09
-2.46172e-09
-2.46851e-09
-2.47523e-09
-2.48187e-09
-2.48845e-09
-2.49497e-09
-2.50142e-09
-2.5078e-09
-2.51412e-09
-2.52039e-09
-2.5266e-09
-2.53272e-09
-2.53879e-09
-2.54482e-09
-2.55077e-09
-2.55662e-09
-2.56246e-09
-2.56821e-09
-2.57388e-09
-2.57948e-09
-2.58502e-09
-2.59052e-09
-2.59588e-09
-2.60126e-09
-2.60656e-09
-2.61179e-09
-2.61691e-09
-2.622e-09
-2.62702e-09
-2.63198e-09
-2.63684e-09
-2.64165e-09
-2.64643e-09
-2.65108e-09
-2.65568e-09
-2.66025e-09
-2.66474e-09
-2.66912e-09
-2.67346e-09
-2.67776e-09
-2.68199e-09
-2.68612e-09
-2.69021e-09
-2.69421e-09
-2.69816e-09
-2.70206e-09
-2.70588e-09
-2.70961e-09
-2.71332e-09
-2.71692e-09
-2.72048e-09
-2.72396e-09
-2.72738e-09
-2.73071e-09
-2.73401e-09
-2.73721e-09
-2.74035e-09
-2.74341e-09
-2.74642e-09
-2.74939e-09
-2.75227e-09
-2.75505e-09
-2.75781e-09
-2.76045e-09
-2.76307e-09
-2.76562e-09
-2.76809e-09
-2.77046e-09
-2.7728e-09
-2.77505e-09
-2.77722e-09
-2.77937e-09
-2.7814e-09
-2.78339e-09
-2.78535e-09
-2.78717e-09
-2.78899e-09
-2.7907e-09
-2.79239e-09
-2.79398e-09
-2.79547e-09
-2.79693e-09
-2.79827e-09
-2.79959e-09
-2.80083e-09
-2.80201e-09
-2.80314e-09
-2.80418e-09
-2.80514e-09
-2.80606e-09
-2.80687e-09
-2.80761e-09
-2.80833e-09
-2.80898e-09
-2.80952e-09
-2.81001e-09
-2.81042e-09
-2.81077e-09
-2.81107e-09
-2.81127e-09
-2.81143e-09
-2.81149e-09
-2.81152e-09
-2.81148e-09
-2.81139e-09
-2.81119e-09
-2.81094e-09
-2.81062e-09
-2.81022e-09
-2.80976e-09
-2.80923e-09
-2.80865e-09
-2.808e-09
-2.80726e-09
-2.80644e-09
-2.80559e-09
-2.80466e-09
-2.8037e-09
-2.80264e-09
-2.80151e-09
-2.80034e-09
-2.7991e-09
-2.79778e-09
-2.79638e-09
-2.79492e-09
-2.7934e-09
-2.79182e-09
-2.7902e-09
-2.78849e-09
-2.78672e-09
-2.78486e-09
-2.78297e-09
-2.78098e-09
-2.77892e-09
-2.77685e-09
-2.77471e-09
-2.77247e-09
-2.77014e-09
-2.76778e-09
-2.76538e-09
-2.76288e-09
-2.76032e-09
-2.75772e-09
-2.75502e-09
-2.75226e-09
-2.74945e-09
-2.74661e-09
-2.74363e-09
-2.74066e-09
-2.73754e-09
-2.73445e-09
-2.73125e-09
-2.72798e-09
-2.72467e-09
-2.72128e-09
-2.71782e-09
-2.71432e-09
-2.71077e-09
-2.70712e-09
-2.70341e-09
-2.69964e-09
-2.69581e-09
-2.69192e-09
-2.68797e-09
-2.68398e-09
-2.67994e-09
-2.67581e-09
-2.67166e-09
-2.66737e-09
-2.66307e-09
-2.65869e-09
-2.65423e-09
-2.64975e-09
-2.64521e-09
-2.64063e-09
-2.63595e-09
-2.63123e-09
-2.62642e-09
-2.62158e-09
-2.61664e-09
-2.61172e-09
-2.60669e-09
-2.60163e-09
-2.59649e-09
-2.5913e-09
-2.58606e-09
-2.58076e-09
-2.57537e-09
-2.56993e-09
-2.56446e-09
-2.55892e-09
-2.55334e-09
-2.54769e-09
-2.54199e-09
-2.5362e-09
-2.53037e-09
-2.52447e-09
-2.51853e-09
-2.51257e-09
-2.50653e-09
-2.50042e-09
-2.49428e-09
-2.4881e-09
-2.48185e-09
-2.47551e-09
-2.46914e-09
-2.46272e-09
-2.45625e-09
-2.44974e-09
-2.44315e-09
-2.43654e-09
-2.42986e-09
-2.42312e-09
-2.41635e-09
-2.40953e-09
-2.40262e-09
-2.39568e-09
-2.38871e-09
-2.38166e-09
-2.37457e-09
-2.36745e-09
-2.36027e-09
-2.35305e-09
-2.34577e-09
-2.33845e-09
-2.33105e-09
-2.3236e-09
-2.31611e-09
-2.30858e-09
-2.301e-09
-2.29341e-09
-2.28574e-09
-2.278e-09
-2.27024e-09
-2.26241e-09
-2.25456e-09
-2.24669e-09
-2.23875e-09
-2.23075e-09
-2.22273e-09
-2.21464e-09
-2.20654e-09
-2.19836e-09
-2.19018e-09
-2.18193e-09
-2.17367e-09
-2.16534e-09
-2.15697e-09
-2.14854e-09
-2.14008e-09
-2.13159e-09
-2.12304e-09
-2.11445e-09
-2.1058e-09
-2.09714e-09
-2.08844e-09
-2.07967e-09
-2.07089e-09
-2.06208e-09
-2.05322e-09
-2.04428e-09
-2.03536e-09
-2.02637e-09
-2.01738e-09
-2.00833e-09
-1.99925e-09
-1.99016e-09
-1.98096e-09
-1.9718e-09
-1.96257e-09
-1.95331e-09
-1.94404e-09
-1.93474e-09
-1.92537e-09
-1.91596e-09
-1.90653e-09
-1.89709e-09
-1.88761e-09
-1.87809e-09
-1.86854e-09
-1.85897e-09
-1.84936e-09
-1.83973e-09
-1.83005e-09
-1.82038e-09
-1.81065e-09
-1.80088e-09
-1.79112e-09
-1.78128e-09
-1.77143e-09
-1.76157e-09
-1.75171e-09
-1.74181e-09
-1.73186e-09
-1.7219e-09
-1.71187e-09
-1.70188e-09
-1.69187e-09
-1.68179e-09
-1.67174e-09
-1.66163e-09
-1.6515e-09
-1.64135e-09
-1.6312e-09
-1.62098e-09
-1.61081e-09
-1.60059e-09
-1.59037e-09
-1.58008e-09
-1.5698e-09
-1.55953e-09
-1.5492e-09
-1.53886e-09
-1.52851e-09
-1.51816e-09
-1.50775e-09
-1.49731e-09
-1.48693e-09
-1.47652e-09
-1.4661e-09
-1.45564e-09
-1.44517e-09
-1.43468e-09
-1.42422e-09
-1.4137e-09
-1.40316e-09
-1.39267e-09
-1.38214e-09
-1.37158e-09
-1.36103e-09
-1.35048e-09
-1.33992e-09
-1.32933e-09
-1.31874e-09
-1.30818e-09
-1.2976e-09
-1.28701e-09
-1.27642e-09
-1.26583e-09
-1.25526e-09
-1.2446e-09
-1.23397e-09
-1.22337e-09
-1.21275e-09
-1.20214e-09
-1.19152e-09
-1.18091e-09
-1.1703e-09
-1.15968e-09
-1.14907e-09
-1.13845e-09
-1.12785e-09
-1.11726e-09
-1.10668e-09
-1.09612e-09
-1.08553e-09
-1.07495e-09
-1.06437e-09
-1.05384e-09
-1.04327e-09
-1.03274e-09
-1.0222e-09
-1.01168e-09
-1.00114e-09
-9.90648e-10
-9.80164e-10
-9.69675e-10
-9.59234e-10
-9.48769e-10
-9.38332e-10
-9.27933e-10
-9.17525e-10
-9.07181e-10
-8.968e-10
-8.86455e-10
-8.76117e-10
-8.65796e-10
-8.55517e-10
-8.45253e-10
-8.35021e-10
-8.24803e-10
-8.1459e-10
-8.04408e-10
-7.94282e-10
-7.84132e-10
-7.74021e-10
-7.63929e-10
-7.53873e-10
-7.43827e-10
-7.33844e-10
-7.2386e-10
-7.13919e-10
-7.04039e-10
-6.94147e-10
-6.84289e-10
-6.74471e-10
-6.6472e-10
-6.54992e-10
-6.45275e-10
-6.35607e-10
-6.25976e-10
-6.16356e-10
-6.068e-10
-5.97341e-10
-5.87821e-10
-5.78398e-10
-5.69008e-10
-5.59609e-10
-5.50304e-10
-5.41005e-10
-5.31782e-10
-5.22581e-10
-5.13429e-10
-5.04324e-10
-4.95266e-10
-4.86282e-10
-4.77325e-10
-4.68439e-10
-4.59599e-10
-4.50793e-10
-4.42048e-10
-4.33363e-10
-4.24738e-10
-4.16128e-10
-4.07612e-10
-3.99137e-10
-3.90772e-10
-3.82385e-10
-3.74117e-10
-3.65871e-10
-3.57717e-10
-3.49619e-10
-3.41579e-10
-3.33597e-10
-3.25719e-10
-3.17874e-10
-3.10113e-10
-3.0254e-10
-2.95146e-10
-2.87875e-10
-2.8083e-10
-2.73876e-10
-2.67116e-10
-2.60524e-10
-2.54006e-10
-2.47686e-10
-2.415e-10
-2.35453e-10
-2.29516e-10
-2.23768e-10
-2.18117e-10
-2.12579e-10
-2.07185e-10
-2.01925e-10
-1.9675e-10
-1.91739e-10
-1.86825e-10
-1.82049e-10
-1.77338e-10
-1.72741e-10
-1.68263e-10
-1.63884e-10
-1.59625e-10
-1.55438e-10
-1.51408e-10
-1.47469e-10
-1.4359e-10
-1.39846e-10
-1.36145e-10
-1.32535e-10
-1.29029e-10
-1.25569e-10
-1.22221e-10
-1.18954e-10
-1.15719e-10
-1.12634e-10
-1.09597e-10
-1.06611e-10
-1.03734e-10
-1.00897e-10
-9.81494e-11
-9.54755e-11
-9.28878e-11
-9.03095e-11
-8.78415e-11
-8.54157e-11
-8.30617e-11
-8.0747e-11
-7.84921e-11
-7.63174e-11
-7.41637e-11
-7.20689e-11
-7.00358e-11
-6.80756e-11
-6.61376e-11
-6.42508e-11
-6.24265e-11
-6.06579e-11
-5.89297e-11
-5.72529e-11
-5.55763e-11
-5.39819e-11
-5.23741e-11
-5.08258e-11
-4.93569e-11
-4.79424e-11
-4.654e-11
-4.51335e-11
-4.38314e-11
-4.25464e-11
-4.12982e-11
-4.00615e-11
-3.88558e-11
-3.77093e-11
-3.65524e-11
-3.54488e-11
-3.4391e-11
-3.33271e-11
-3.23295e-11
-3.13463e-11
-3.0361e-11
-2.94281e-11
-2.85133e-11
-2.76091e-11
-2.67608e-11
-2.59075e-11
-2.5077e-11
-2.4288e-11
-2.34972e-11
-2.27589e-11
-2.20209e-11
-2.12929e-11
-2.05936e-11
-1.99596e-11
-1.92939e-11
-1.86685e-11
-1.80399e-11
-1.74087e-11
-1.68292e-11
-1.62577e-11
-1.57393e-11
-1.5186e-11
-1.46605e-11
-1.41459e-11
-1.36428e-11
-1.31696e-11
-1.26914e-11
-1.22177e-11
-1.17491e-11
-1.13128e-11
-1.09182e-11
-1.05214e-11
-1.00963e-11
-9.6968e-12
-9.2966e-12
-8.92284e-12
-8.56712e-12
-8.21209e-12
-7.8493e-12
-7.49691e-12
-7.19084e-12
-6.87819e-12
-6.56818e-12
-6.26117e-12
-5.96638e-12
-5.68413e-12
-5.36144e-12
-5.08741e-12
-4.80017e-12
-4.53551e-12
-4.24927e-12
-4.02165e-12
-3.76405e-12
-3.49446e-12
-3.23974e-12
-3.00009e-12
-2.7757e-12
-2.57562e-12
-2.32896e-12
-2.11583e-12
-1.88306e-12
-1.62191e-12
-1.45685e-12
-1.17483e-12
-1.02465e-12
-7.84334e-13
-5.60561e-13
-3.53399e-13
-1.18497e-13
6.41545e-14
2.83338e-13
5.03492e-13
)
;

boundaryField
{
    bottom
    {
        type            fixedValue;
        value           uniform 0;
    }
    top
    {
        type            calculated;
        value           uniform 7.06834e-13;
    }
    walls
    {
        type            fixedValue;
        value           uniform 0;
    }
}


// ************************************************************************* //
