/*--------------------------------*- C++ -*----------------------------------*\
| =========                 |                                                 |
| \\      /  F ield         | foam-extend: Open Source CFD                    |
|  \\    /   O peration     | Version:     5.0                                |
|   \\  /    A nd           | Web:         http://www.foam-extend.org         |
|    \\/     M anipulation  |                                                 |
\*---------------------------------------------------------------------------*/
FoamFile
{
    version     2.0;
    format      ascii;
    class       volScalarField;
    location    "5000";
    object      S.gas;
}
// * * * * * * * * * * * * * * * * * * * * * * * * * * * * * * * * * * * * * //

dimensions      [0 0 0 0 0 0 0];

internalField   nonuniform List<scalar> 
1500
(
4.9289e-06
7.97193e-06
1.08087e-05
1.35496e-05
1.62355e-05
1.88849e-05
2.15086e-05
2.41128e-05
2.67019e-05
2.92789e-05
3.1846e-05
3.44047e-05
3.69564e-05
3.95019e-05
4.20422e-05
4.45779e-05
4.71095e-05
4.96374e-05
5.2162e-05
5.46837e-05
5.72027e-05
5.97193e-05
6.22336e-05
6.47458e-05
6.72562e-05
6.97648e-05
7.22718e-05
7.47773e-05
7.72814e-05
7.97842e-05
8.22858e-05
8.47861e-05
8.72854e-05
8.97837e-05
9.2281e-05
9.47774e-05
9.7273e-05
9.97677e-05
0.000102262
0.000104755
0.000107247
0.000109739
0.00011223
0.000114721
0.000117211
0.0001197
0.000122189
0.000124677
0.000127165
0.000129653
0.00013214
0.000134626
0.000137112
0.000139598
0.000142083
0.000144568
0.000147053
0.000149537
0.000152021
0.000154504
0.000156987
0.00015947
0.000161953
0.000164435
0.000166917
0.000169399
0.00017188
0.000174361
0.000176842
0.000179323
0.000181804
0.000184284
0.000186764
0.000189244
0.000191723
0.000194203
0.000196682
0.000199161
0.00020164
0.000204119
0.000206597
0.000209075
0.000211553
0.000214031
0.000216509
0.000218987
0.000221464
0.000223942
0.000226419
0.000228896
0.000231373
0.000233849
0.000236326
0.000238803
0.000241279
0.000243755
0.000246231
0.000248707
0.000251183
0.000253659
0.000256135
0.00025861
0.000261085
0.000263561
0.000266036
0.000268511
0.000270986
0.000273461
0.000275936
0.00027841
0.000280885
0.00028336
0.000285834
0.000288308
0.000290783
0.000293257
0.000295731
0.000298205
0.000300679
0.000303153
0.000305626
0.0003081
0.000310574
0.000313047
0.000315521
0.000317994
0.000320467
0.000322941
0.000325414
0.000327887
0.00033036
0.000332833
0.000335306
0.000337779
0.000340252
0.000342724
0.000345197
0.00034767
0.000350142
0.000352615
0.000355087
0.00035756
0.000360032
0.000362504
0.000364977
0.000367449
0.000369921
0.000372393
0.000374865
0.000377337
0.000379809
0.000382281
0.000384753
0.000387225
0.000389696
0.000392168
0.00039464
0.000397111
0.000399583
0.000402055
0.000404526
0.000406998
0.000409469
0.00041194
0.000414412
0.000416883
0.000419354
0.000421826
0.000424297
0.000426768
0.000429239
0.00043171
0.000434181
0.000436652
0.000439123
0.000441594
0.000444065
0.000446536
0.000449007
0.000451478
0.000453949
0.00045642
0.00045889
0.000461361
0.000463832
0.000466302
0.000468773
0.000471244
0.000473714
0.000476185
0.000478655
0.000481126
0.000483596
0.000486067
0.000488537
0.000491008
0.000493478
0.000495948
0.000498419
0.000500889
0.000503359
0.000505829
0.0005083
0.00051077
0.00051324
0.00051571
0.00051818
0.000520651
0.000523121
0.000525591
0.000528061
0.000530531
0.000533001
0.000535471
0.000537941
0.000540411
0.000542881
0.000545351
0.000547821
0.000550291
0.000552761
0.00055523
0.0005577
0.00056017
0.00056264
0.00056511
0.00056758
0.000570049
0.000572519
0.000574989
0.000577459
0.000579928
0.000582398
0.000584868
0.000587337
0.000589807
0.000592277
0.000594746
0.000597216
0.000599685
0.000602155
0.000604629
0.000607274
0.000617052
0.000919523
0.00795773
0.0207933
0.0334731
0.0459185
0.0581277
0.0701046
0.0818543
0.0933824
0.104694
0.115795
0.126689
0.137383
0.14788
0.158187
0.168306
0.178244
0.188003
0.197589
0.207006
0.216257
0.225346
0.234277
0.243054
0.25168
0.260159
0.268493
0.276688
0.284744
0.292666
0.300456
0.308118
0.315654
0.323067
0.330359
0.337534
0.344593
0.35154
0.358376
0.365104
0.371726
0.378245
0.384662
0.39098
0.3972
0.403325
0.409357
0.415297
0.421148
0.426911
0.432587
0.438179
0.443689
0.449117
0.454466
0.459737
0.464931
0.470051
0.475096
0.48007
0.484973
0.489806
0.494572
0.49927
0.503903
0.508471
0.512977
0.51742
0.521802
0.526124
0.530388
0.534594
0.538744
0.542837
0.546877
0.550862
0.554795
0.558676
0.562506
0.566286
0.570017
0.5737
0.577335
0.580923
0.584466
0.587964
0.591417
0.594827
0.598194
0.601519
0.604802
0.608045
0.611247
0.614411
0.617535
0.620621
0.62367
0.626682
0.629657
0.632597
0.635502
0.638372
0.641208
0.64401
0.646779
0.649516
0.652221
0.654895
0.657537
0.660149
0.662731
0.665283
0.667806
0.670301
0.672767
0.675205
0.677616
0.68
0.682357
0.684688
0.686993
0.689273
0.691527
0.693757
0.695963
0.698144
0.700302
0.702437
0.704548
0.706637
0.708704
0.710748
0.712771
0.714772
0.716753
0.718712
0.720651
0.72257
0.724469
0.726348
0.728208
0.730048
0.73187
0.733673
0.735458
0.737224
0.738973
0.740704
0.742418
0.744114
0.745794
0.747457
0.749103
0.750733
0.752347
0.753945
0.755528
0.757095
0.758646
0.760183
0.761705
0.763212
0.764705
0.766183
0.767648
0.769098
0.770535
0.771958
0.773367
0.774764
0.776147
0.777517
0.778875
0.78022
0.781553
0.782873
0.784181
0.785477
0.786761
0.788034
0.789295
0.790545
0.791783
0.79301
0.794226
0.795431
0.796626
0.79781
0.798983
0.800146
0.801299
0.802441
0.803574
0.804697
0.805809
0.806913
0.808006
0.80909
0.810165
0.811231
0.812287
0.813335
0.814373
0.815403
0.816424
0.817436
0.81844
0.819435
0.820422
0.821401
0.822372
0.823334
0.824289
0.825236
0.826174
0.827106
0.828029
0.828945
0.829854
0.830755
0.831649
0.832535
0.833415
0.834287
0.835153
0.836011
0.836863
0.837708
0.838546
0.839377
0.840202
0.841021
0.841833
0.842639
0.843438
0.844231
0.845018
0.845799
0.846574
0.847343
0.848106
0.848863
0.849615
0.850361
0.851101
0.851835
0.852564
0.853287
0.854005
0.854718
0.855425
0.856127
0.856824
0.857515
0.858202
0.858883
0.859559
0.860231
0.860897
0.861559
0.862215
0.862867
0.863514
0.864157
0.864795
0.865428
0.866057
0.866681
0.867301
0.867916
0.868527
0.869134
0.869737
0.870335
0.870929
0.871518
0.872104
0.872686
0.873263
0.873837
0.874406
0.874972
0.875533
0.876091
0.876645
0.877195
0.877742
0.878284
0.878823
0.879359
0.879891
0.880419
0.880943
0.881465
0.881982
0.882496
0.883007
0.883514
0.884018
0.884519
0.885016
0.885511
0.886001
0.886489
0.886974
0.887455
0.887933
0.888408
0.88888
0.889349
0.889815
0.890278
0.890738
0.891195
0.891649
0.892101
0.892549
0.892995
0.893438
0.893878
0.894315
0.894749
0.895181
0.89561
0.896037
0.896461
0.896882
0.897301
0.897717
0.89813
0.898541
0.89895
0.899356
0.899759
0.90016
0.900559
0.900955
0.901349
0.901741
0.90213
0.902517
0.902902
0.903284
0.903664
0.904042
0.904417
0.904791
0.905162
0.905531
0.905898
0.906263
0.906625
0.906986
0.907345
0.907701
0.908055
0.908408
0.908758
0.909106
0.909453
0.909797
0.91014
0.91048
0.910819
0.911156
0.911491
0.911824
0.912155
0.912484
0.912812
0.913138
0.913461
0.913784
0.914104
0.914423
0.91474
0.915055
0.915368
0.91568
0.91599
0.916299
0.916606
0.916911
0.917214
0.917516
0.917817
0.918116
0.918413
0.918708
0.919003
0.919295
0.919586
0.919876
0.920164
0.92045
0.920735
0.921019
0.921301
0.921582
0.921861
0.922139
0.922416
0.922691
0.922965
0.923237
0.923508
0.923777
0.924046
0.924313
0.924578
0.924843
0.925106
0.925367
0.925628
0.925887
0.926145
0.926402
0.926657
0.926911
0.927164
0.927416
0.927667
0.927916
0.928164
0.928411
0.928657
0.928902
0.929145
0.929388
0.929629
0.929869
0.930108
0.930346
0.930583
0.930819
0.931054
0.931287
0.93152
0.931751
0.931982
0.932211
0.932439
0.932667
0.932893
0.933119
0.933343
0.933566
0.933789
0.93401
0.93423
0.93445
0.934668
0.934886
0.935102
0.935318
0.935533
0.935746
0.935959
0.936171
0.936382
0.936593
0.936802
0.93701
0.937218
0.937424
0.93763
0.937835
0.938039
0.938243
0.938445
0.938647
0.938847
0.939047
0.939246
0.939445
0.939642
0.939839
0.940035
0.94023
0.940424
0.940618
0.940811
0.941003
0.941194
0.941385
0.941575
0.941764
0.941952
0.94214
0.942327
0.942513
0.942698
0.942883
0.943067
0.94325
0.943433
0.943615
0.943796
0.943977
0.944157
0.944336
0.944515
0.944693
0.94487
0.945047
0.945223
0.945398
0.945573
0.945747
0.94592
0.946093
0.946265
0.946437
0.946608
0.946778
0.946948
0.947117
0.947286
0.947454
0.947621
0.947788
0.947954
0.94812
0.948285
0.94845
0.948614
0.948777
0.94894
0.949102
0.949264
0.949425
0.949586
0.949746
0.949906
0.950065
0.950224
0.950382
0.950539
0.950696
0.950853
0.951009
0.951165
0.95132
0.951474
0.951628
0.951782
0.951935
0.952087
0.952239
0.952391
0.952542
0.952693
0.952843
0.952993
0.953142
0.953291
0.953439
0.953587
0.953735
0.953882
0.954028
0.954175
0.95432
0.954466
0.954611
0.954755
0.954899
0.955043
0.955186
0.955328
0.955471
0.955613
0.955754
0.955895
0.956036
0.956176
0.956316
0.956456
0.956595
0.956734
0.956872
0.95701
0.957147
0.957285
0.957421
0.957558
0.957694
0.95783
0.957965
0.9581
0.958234
0.958369
0.958502
0.958636
0.958769
0.958902
0.959034
0.959166
0.959298
0.95943
0.959561
0.959691
0.959822
0.959952
0.960081
0.960211
0.96034
0.960468
0.960597
0.960725
0.960853
0.96098
0.961107
0.961234
0.96136
0.961487
0.961612
0.961738
0.961863
0.961988
0.962113
0.962237
0.962361
0.962485
0.962608
0.962731
0.962854
0.962977
0.963099
0.963221
0.963342
0.963464
0.963585
0.963706
0.963826
0.963946
0.964066
0.964186
0.964306
0.964425
0.964544
0.964662
0.964781
0.964899
0.965016
0.965134
0.965251
0.965368
0.965485
0.965601
0.965718
0.965834
0.965949
0.966065
0.96618
0.966295
0.96641
0.966524
0.966638
0.966752
0.966866
0.96698
0.967093
0.967206
0.967319
0.967431
0.967543
0.967655
0.967767
0.967879
0.96799
0.968101
0.968212
0.968323
0.968433
0.968544
0.968653
0.968763
0.968873
0.968982
0.969091
0.9692
0.969309
0.969417
0.969525
0.969633
0.969741
0.969849
0.969956
0.970063
0.97017
0.970277
0.970383
0.970489
0.970595
0.970701
0.970807
0.970912
0.971018
0.971123
0.971228
0.971332
0.971437
0.971541
0.971645
0.971749
0.971852
0.971956
0.972059
0.972162
0.972265
0.972367
0.97247
0.972572
0.972674
0.972776
0.972878
0.972979
0.973081
0.973182
0.973283
0.973383
0.973484
0.973584
0.973684
0.973784
0.973884
0.973984
0.974083
0.974182
0.974281
0.97438
0.974479
0.974578
0.974676
0.974774
0.974872
0.97497
0.975067
0.975165
0.975262
0.975359
0.975456
0.975553
0.975649
0.975746
0.975842
0.975938
0.976034
0.97613
0.976225
0.976321
0.976416
0.976511
0.976606
0.9767
0.976795
0.976889
0.976983
0.977077
0.977171
0.977265
0.977358
0.977451
0.977545
0.977638
0.97773
0.977823
0.977916
0.978008
0.9781
0.978192
0.978284
0.978375
0.978467
0.978558
0.978649
0.97874
0.978831
0.978922
0.979013
0.979103
0.979193
0.979283
0.979373
0.979463
0.979552
0.979642
0.979731
0.97982
0.979909
0.979998
0.980086
0.980175
0.980263
0.980351
0.980439
0.980527
0.980615
0.980702
0.980789
0.980877
0.980964
0.98105
0.981137
0.981224
0.98131
0.981396
0.981482
0.981568
0.981654
0.98174
0.981825
0.98191
0.981995
0.98208
0.982165
0.98225
0.982334
0.982419
0.982503
0.982587
0.982671
0.982755
0.982838
0.982922
0.983005
0.983088
0.983171
0.983254
0.983336
0.983419
0.983501
0.983583
0.983665
0.983747
0.983829
0.983911
0.983992
0.984073
0.984154
0.984235
0.984316
0.984397
0.984477
0.984557
0.984638
0.984718
0.984797
0.984877
0.984957
0.985036
0.985115
0.985194
0.985273
0.985352
0.985431
0.985509
0.985587
0.985665
0.985743
0.985821
0.985899
0.985976
0.986054
0.986131
0.986208
0.986285
0.986361
0.986438
0.986514
0.986591
0.986667
0.986743
0.986818
0.986894
0.986969
0.987045
0.98712
0.987195
0.987269
0.987344
0.987419
0.987493
0.987567
0.987641
0.987715
0.987788
0.987862
0.987935
0.988008
0.988081
0.988154
0.988227
0.988299
0.988372
0.988444
0.988516
0.988588
0.98866
0.988731
0.988802
0.988874
0.988945
0.989016
0.989086
0.989157
0.989227
0.989297
0.989367
0.989437
0.989507
0.989576
0.989646
0.989715
0.989784
0.989853
0.989921
0.98999
0.990058
0.990126
0.990194
0.990262
0.99033
0.990397
0.990465
0.990532
0.990599
0.990665
0.990732
0.990798
0.990865
0.990931
0.990997
0.991062
0.991128
0.991193
0.991258
0.991323
0.991388
0.991453
0.991517
0.991581
0.991646
0.991709
0.991773
0.991837
0.9919
0.991963
0.992026
0.992089
0.992152
0.992214
0.992276
0.992338
0.9924
0.992462
0.992523
0.992585
0.992646
0.992707
0.992767
0.992828
0.992888
0.992948
0.993008
0.993068
0.993128
0.993187
0.993246
0.993305
0.993364
0.993423
0.993481
0.993539
0.993597
0.993655
0.993713
0.99377
0.993827
0.993884
0.993941
0.993998
0.994054
0.99411
0.994166
0.994222
0.994278
0.994333
0.994388
0.994443
0.994498
0.994552
0.994607
0.994661
0.994715
0.994768
0.994822
0.994875
0.994928
0.994981
0.995033
0.995086
0.995138
0.99519
0.995242
0.995293
0.995345
0.995396
0.995447
0.995497
0.995548
0.995598
0.995648
0.995697
0.995747
0.995796
0.995845
0.995894
0.995943
0.995991
0.996039
0.996087
0.996135
0.996182
0.996229
0.996276
0.996323
0.99637
0.996416
0.996462
0.996508
0.996553
0.996598
0.996644
0.996688
0.996733
0.996777
0.996821
0.996865
0.996909
0.996952
0.996995
0.997038
0.997081
0.997123
0.997165
0.997207
0.997248
0.99729
0.997331
0.997372
0.997412
0.997452
0.997492
0.997532
0.997572
0.997611
0.99765
0.997688
0.997727
0.997765
0.997803
0.997841
0.997878
0.997915
0.997952
0.997988
0.998025
0.998061
0.998096
0.998132
0.998167
0.998202
0.998236
0.99827
0.998304
0.998338
0.998372
0.998405
0.998438
0.99847
0.998503
0.998534
0.998566
0.998598
0.998629
0.998659
0.99869
0.99872
0.99875
0.99878
0.998809
0.998838
0.998867
0.998895
0.998923
0.998951
0.998978
0.999006
0.999032
0.999058
0.999083
0.999108
0.999132
0.999155
0.999178
0.999201
0.999222
0.999243
0.999264
0.999284
0.999304
0.999323
0.999341
0.99936
0.999377
0.999394
0.999411
0.999428
0.999444
0.999459
0.999474
0.999489
0.999503
0.999517
0.999531
0.999544
0.999557
0.999569
0.999582
0.999594
0.999605
0.999616
0.999627
0.999638
0.999649
0.999659
0.999669
0.999678
0.999687
0.999697
0.999705
0.999714
0.999722
0.99973
0.999738
0.999746
0.999753
0.999761
0.999768
0.999775
0.999781
0.999788
0.999794
0.9998
0.999806
0.999812
0.999818
0.999823
0.999829
0.999834
0.999839
0.999844
0.999848
0.999853
0.999857
0.999862
0.999866
0.99987
0.999874
0.999878
0.999882
0.999885
0.999889
0.999892
0.999896
0.999899
0.999902
0.999905
0.999908
0.999911
0.999914
0.999916
0.999919
0.999921
0.999924
0.999926
0.999929
0.999931
0.999933
0.999935
0.999937
0.999939
0.999941
0.999943
0.999945
0.999946
0.999948
0.99995
0.999951
0.999953
0.999954
0.999956
0.999957
0.999958
0.99996
0.999961
0.999962
0.999963
0.999965
0.999966
0.999967
0.999968
0.999969
0.99997
0.99997
0.999971
0.999972
0.999973
0.999974
0.999975
0.999975
0.999976
0.999977
0.999977
0.999978
0.999978
0.999979
0.99998
0.99998
0.999981
0.999981
0.999981
0.999982
0.999982
0.999983
0.999983
0.999983
0.999984
0.999984
0.999984
0.999985
0.999985
0.999985
0.999985
0.999985
0.999985
0.999986
0.999986
0.999986
0.999986
0.999986
0.999986
0.999986
0.999986
)
;

boundaryField
{
    bottom
    {
        type            calculated;
        value           uniform 0.5;
    }
    top
    {
        type            calculated;
        value           uniform 0.999986;
    }
    walls
    {
        type            calculated;
        value           nonuniform List<scalar> 
6000
(
4.9289e-06
7.97193e-06
1.08087e-05
1.35496e-05
1.62355e-05
1.88849e-05
2.15086e-05
2.41128e-05
2.67019e-05
2.92789e-05
3.1846e-05
3.44047e-05
3.69564e-05
3.95019e-05
4.20422e-05
4.45779e-05
4.71095e-05
4.96374e-05
5.2162e-05
5.46837e-05
5.72027e-05
5.97193e-05
6.22336e-05
6.47458e-05
6.72562e-05
6.97648e-05
7.22718e-05
7.47773e-05
7.72814e-05
7.97842e-05
8.22858e-05
8.47861e-05
8.72854e-05
8.97837e-05
9.2281e-05
9.47774e-05
9.7273e-05
9.97677e-05
0.000102262
0.000104755
0.000107247
0.000109739
0.00011223
0.000114721
0.000117211
0.0001197
0.000122189
0.000124677
0.000127165
0.000129653
0.00013214
0.000134626
0.000137112
0.000139598
0.000142083
0.000144568
0.000147053
0.000149537
0.000152021
0.000154504
0.000156987
0.00015947
0.000161953
0.000164435
0.000166917
0.000169399
0.00017188
0.000174361
0.000176842
0.000179323
0.000181804
0.000184284
0.000186764
0.000189244
0.000191723
0.000194203
0.000196682
0.000199161
0.00020164
0.000204119
0.000206597
0.000209075
0.000211553
0.000214031
0.000216509
0.000218987
0.000221464
0.000223942
0.000226419
0.000228896
0.000231373
0.000233849
0.000236326
0.000238803
0.000241279
0.000243755
0.000246231
0.000248707
0.000251183
0.000253659
0.000256135
0.00025861
0.000261085
0.000263561
0.000266036
0.000268511
0.000270986
0.000273461
0.000275936
0.00027841
0.000280885
0.00028336
0.000285834
0.000288308
0.000290783
0.000293257
0.000295731
0.000298205
0.000300679
0.000303153
0.000305626
0.0003081
0.000310574
0.000313047
0.000315521
0.000317994
0.000320467
0.000322941
0.000325414
0.000327887
0.00033036
0.000332833
0.000335306
0.000337779
0.000340252
0.000342724
0.000345197
0.00034767
0.000350142
0.000352615
0.000355087
0.00035756
0.000360032
0.000362504
0.000364977
0.000367449
0.000369921
0.000372393
0.000374865
0.000377337
0.000379809
0.000382281
0.000384753
0.000387225
0.000389696
0.000392168
0.00039464
0.000397111
0.000399583
0.000402055
0.000404526
0.000406998
0.000409469
0.00041194
0.000414412
0.000416883
0.000419354
0.000421826
0.000424297
0.000426768
0.000429239
0.00043171
0.000434181
0.000436652
0.000439123
0.000441594
0.000444065
0.000446536
0.000449007
0.000451478
0.000453949
0.00045642
0.00045889
0.000461361
0.000463832
0.000466302
0.000468773
0.000471244
0.000473714
0.000476185
0.000478655
0.000481126
0.000483596
0.000486067
0.000488537
0.000491008
0.000493478
0.000495948
0.000498419
0.000500889
0.000503359
0.000505829
0.0005083
0.00051077
0.00051324
0.00051571
0.00051818
0.000520651
0.000523121
0.000525591
0.000528061
0.000530531
0.000533001
0.000535471
0.000537941
0.000540411
0.000542881
0.000545351
0.000547821
0.000550291
0.000552761
0.00055523
0.0005577
0.00056017
0.00056264
0.00056511
0.00056758
0.000570049
0.000572519
0.000574989
0.000577459
0.000579928
0.000582398
0.000584868
0.000587337
0.000589807
0.000592277
0.000594746
0.000597216
0.000599685
0.000602155
0.000604629
0.000607274
0.000617052
0.000919523
0.00795773
0.0207933
0.0334731
0.0459185
0.0581277
0.0701046
0.0818543
0.0933824
0.104694
0.115795
0.126689
0.137383
0.14788
0.158187
0.168306
0.178244
0.188003
0.197589
0.207006
0.216257
0.225346
0.234277
0.243054
0.25168
0.260159
0.268493
0.276688
0.284744
0.292666
0.300456
0.308118
0.315654
0.323067
0.330359
0.337534
0.344593
0.35154
0.358376
0.365104
0.371726
0.378245
0.384662
0.39098
0.3972
0.403325
0.409357
0.415297
0.421148
0.426911
0.432587
0.438179
0.443689
0.449117
0.454466
0.459737
0.464931
0.470051
0.475096
0.48007
0.484973
0.489806
0.494572
0.49927
0.503903
0.508471
0.512977
0.51742
0.521802
0.526124
0.530388
0.534594
0.538744
0.542837
0.546877
0.550862
0.554795
0.558676
0.562506
0.566286
0.570017
0.5737
0.577335
0.580923
0.584466
0.587964
0.591417
0.594827
0.598194
0.601519
0.604802
0.608045
0.611247
0.614411
0.617535
0.620621
0.62367
0.626682
0.629657
0.632597
0.635502
0.638372
0.641208
0.64401
0.646779
0.649516
0.652221
0.654895
0.657537
0.660149
0.662731
0.665283
0.667806
0.670301
0.672767
0.675205
0.677616
0.68
0.682357
0.684688
0.686993
0.689273
0.691527
0.693757
0.695963
0.698144
0.700302
0.702437
0.704548
0.706637
0.708704
0.710748
0.712771
0.714772
0.716753
0.718712
0.720651
0.72257
0.724469
0.726348
0.728208
0.730048
0.73187
0.733673
0.735458
0.737224
0.738973
0.740704
0.742418
0.744114
0.745794
0.747457
0.749103
0.750733
0.752347
0.753945
0.755528
0.757095
0.758646
0.760183
0.761705
0.763212
0.764705
0.766183
0.767648
0.769098
0.770535
0.771958
0.773367
0.774764
0.776147
0.777517
0.778875
0.78022
0.781553
0.782873
0.784181
0.785477
0.786761
0.788034
0.789295
0.790545
0.791783
0.79301
0.794226
0.795431
0.796626
0.79781
0.798983
0.800146
0.801299
0.802441
0.803574
0.804697
0.805809
0.806913
0.808006
0.80909
0.810165
0.811231
0.812287
0.813335
0.814373
0.815403
0.816424
0.817436
0.81844
0.819435
0.820422
0.821401
0.822372
0.823334
0.824289
0.825236
0.826174
0.827106
0.828029
0.828945
0.829854
0.830755
0.831649
0.832535
0.833415
0.834287
0.835153
0.836011
0.836863
0.837708
0.838546
0.839377
0.840202
0.841021
0.841833
0.842639
0.843438
0.844231
0.845018
0.845799
0.846574
0.847343
0.848106
0.848863
0.849615
0.850361
0.851101
0.851835
0.852564
0.853287
0.854005
0.854718
0.855425
0.856127
0.856824
0.857515
0.858202
0.858883
0.859559
0.860231
0.860897
0.861559
0.862215
0.862867
0.863514
0.864157
0.864795
0.865428
0.866057
0.866681
0.867301
0.867916
0.868527
0.869134
0.869737
0.870335
0.870929
0.871518
0.872104
0.872686
0.873263
0.873837
0.874406
0.874972
0.875533
0.876091
0.876645
0.877195
0.877742
0.878284
0.878823
0.879359
0.879891
0.880419
0.880943
0.881465
0.881982
0.882496
0.883007
0.883514
0.884018
0.884519
0.885016
0.885511
0.886001
0.886489
0.886974
0.887455
0.887933
0.888408
0.88888
0.889349
0.889815
0.890278
0.890738
0.891195
0.891649
0.892101
0.892549
0.892995
0.893438
0.893878
0.894315
0.894749
0.895181
0.89561
0.896037
0.896461
0.896882
0.897301
0.897717
0.89813
0.898541
0.89895
0.899356
0.899759
0.90016
0.900559
0.900955
0.901349
0.901741
0.90213
0.902517
0.902902
0.903284
0.903664
0.904042
0.904417
0.904791
0.905162
0.905531
0.905898
0.906263
0.906625
0.906986
0.907345
0.907701
0.908055
0.908408
0.908758
0.909106
0.909453
0.909797
0.91014
0.91048
0.910819
0.911156
0.911491
0.911824
0.912155
0.912484
0.912812
0.913138
0.913461
0.913784
0.914104
0.914423
0.91474
0.915055
0.915368
0.91568
0.91599
0.916299
0.916606
0.916911
0.917214
0.917516
0.917817
0.918116
0.918413
0.918708
0.919003
0.919295
0.919586
0.919876
0.920164
0.92045
0.920735
0.921019
0.921301
0.921582
0.921861
0.922139
0.922416
0.922691
0.922965
0.923237
0.923508
0.923777
0.924046
0.924313
0.924578
0.924843
0.925106
0.925367
0.925628
0.925887
0.926145
0.926402
0.926657
0.926911
0.927164
0.927416
0.927667
0.927916
0.928164
0.928411
0.928657
0.928902
0.929145
0.929388
0.929629
0.929869
0.930108
0.930346
0.930583
0.930819
0.931054
0.931287
0.93152
0.931751
0.931982
0.932211
0.932439
0.932667
0.932893
0.933119
0.933343
0.933566
0.933789
0.93401
0.93423
0.93445
0.934668
0.934886
0.935102
0.935318
0.935533
0.935746
0.935959
0.936171
0.936382
0.936593
0.936802
0.93701
0.937218
0.937424
0.93763
0.937835
0.938039
0.938243
0.938445
0.938647
0.938847
0.939047
0.939246
0.939445
0.939642
0.939839
0.940035
0.94023
0.940424
0.940618
0.940811
0.941003
0.941194
0.941385
0.941575
0.941764
0.941952
0.94214
0.942327
0.942513
0.942698
0.942883
0.943067
0.94325
0.943433
0.943615
0.943796
0.943977
0.944157
0.944336
0.944515
0.944693
0.94487
0.945047
0.945223
0.945398
0.945573
0.945747
0.94592
0.946093
0.946265
0.946437
0.946608
0.946778
0.946948
0.947117
0.947286
0.947454
0.947621
0.947788
0.947954
0.94812
0.948285
0.94845
0.948614
0.948777
0.94894
0.949102
0.949264
0.949425
0.949586
0.949746
0.949906
0.950065
0.950224
0.950382
0.950539
0.950696
0.950853
0.951009
0.951165
0.95132
0.951474
0.951628
0.951782
0.951935
0.952087
0.952239
0.952391
0.952542
0.952693
0.952843
0.952993
0.953142
0.953291
0.953439
0.953587
0.953735
0.953882
0.954028
0.954175
0.95432
0.954466
0.954611
0.954755
0.954899
0.955043
0.955186
0.955328
0.955471
0.955613
0.955754
0.955895
0.956036
0.956176
0.956316
0.956456
0.956595
0.956734
0.956872
0.95701
0.957147
0.957285
0.957421
0.957558
0.957694
0.95783
0.957965
0.9581
0.958234
0.958369
0.958502
0.958636
0.958769
0.958902
0.959034
0.959166
0.959298
0.95943
0.959561
0.959691
0.959822
0.959952
0.960081
0.960211
0.96034
0.960468
0.960597
0.960725
0.960853
0.96098
0.961107
0.961234
0.96136
0.961487
0.961612
0.961738
0.961863
0.961988
0.962113
0.962237
0.962361
0.962485
0.962608
0.962731
0.962854
0.962977
0.963099
0.963221
0.963342
0.963464
0.963585
0.963706
0.963826
0.963946
0.964066
0.964186
0.964306
0.964425
0.964544
0.964662
0.964781
0.964899
0.965016
0.965134
0.965251
0.965368
0.965485
0.965601
0.965718
0.965834
0.965949
0.966065
0.96618
0.966295
0.96641
0.966524
0.966638
0.966752
0.966866
0.96698
0.967093
0.967206
0.967319
0.967431
0.967543
0.967655
0.967767
0.967879
0.96799
0.968101
0.968212
0.968323
0.968433
0.968544
0.968653
0.968763
0.968873
0.968982
0.969091
0.9692
0.969309
0.969417
0.969525
0.969633
0.969741
0.969849
0.969956
0.970063
0.97017
0.970277
0.970383
0.970489
0.970595
0.970701
0.970807
0.970912
0.971018
0.971123
0.971228
0.971332
0.971437
0.971541
0.971645
0.971749
0.971852
0.971956
0.972059
0.972162
0.972265
0.972367
0.97247
0.972572
0.972674
0.972776
0.972878
0.972979
0.973081
0.973182
0.973283
0.973383
0.973484
0.973584
0.973684
0.973784
0.973884
0.973984
0.974083
0.974182
0.974281
0.97438
0.974479
0.974578
0.974676
0.974774
0.974872
0.97497
0.975067
0.975165
0.975262
0.975359
0.975456
0.975553
0.975649
0.975746
0.975842
0.975938
0.976034
0.97613
0.976225
0.976321
0.976416
0.976511
0.976606
0.9767
0.976795
0.976889
0.976983
0.977077
0.977171
0.977265
0.977358
0.977451
0.977545
0.977638
0.97773
0.977823
0.977916
0.978008
0.9781
0.978192
0.978284
0.978375
0.978467
0.978558
0.978649
0.97874
0.978831
0.978922
0.979013
0.979103
0.979193
0.979283
0.979373
0.979463
0.979552
0.979642
0.979731
0.97982
0.979909
0.979998
0.980086
0.980175
0.980263
0.980351
0.980439
0.980527
0.980615
0.980702
0.980789
0.980877
0.980964
0.98105
0.981137
0.981224
0.98131
0.981396
0.981482
0.981568
0.981654
0.98174
0.981825
0.98191
0.981995
0.98208
0.982165
0.98225
0.982334
0.982419
0.982503
0.982587
0.982671
0.982755
0.982838
0.982922
0.983005
0.983088
0.983171
0.983254
0.983336
0.983419
0.983501
0.983583
0.983665
0.983747
0.983829
0.983911
0.983992
0.984073
0.984154
0.984235
0.984316
0.984397
0.984477
0.984557
0.984638
0.984718
0.984797
0.984877
0.984957
0.985036
0.985115
0.985194
0.985273
0.985352
0.985431
0.985509
0.985587
0.985665
0.985743
0.985821
0.985899
0.985976
0.986054
0.986131
0.986208
0.986285
0.986361
0.986438
0.986514
0.986591
0.986667
0.986743
0.986818
0.986894
0.986969
0.987045
0.98712
0.987195
0.987269
0.987344
0.987419
0.987493
0.987567
0.987641
0.987715
0.987788
0.987862
0.987935
0.988008
0.988081
0.988154
0.988227
0.988299
0.988372
0.988444
0.988516
0.988588
0.98866
0.988731
0.988802
0.988874
0.988945
0.989016
0.989086
0.989157
0.989227
0.989297
0.989367
0.989437
0.989507
0.989576
0.989646
0.989715
0.989784
0.989853
0.989921
0.98999
0.990058
0.990126
0.990194
0.990262
0.99033
0.990397
0.990465
0.990532
0.990599
0.990665
0.990732
0.990798
0.990865
0.990931
0.990997
0.991062
0.991128
0.991193
0.991258
0.991323
0.991388
0.991453
0.991517
0.991581
0.991646
0.991709
0.991773
0.991837
0.9919
0.991963
0.992026
0.992089
0.992152
0.992214
0.992276
0.992338
0.9924
0.992462
0.992523
0.992585
0.992646
0.992707
0.992767
0.992828
0.992888
0.992948
0.993008
0.993068
0.993128
0.993187
0.993246
0.993305
0.993364
0.993423
0.993481
0.993539
0.993597
0.993655
0.993713
0.99377
0.993827
0.993884
0.993941
0.993998
0.994054
0.99411
0.994166
0.994222
0.994278
0.994333
0.994388
0.994443
0.994498
0.994552
0.994607
0.994661
0.994715
0.994768
0.994822
0.994875
0.994928
0.994981
0.995033
0.995086
0.995138
0.99519
0.995242
0.995293
0.995345
0.995396
0.995447
0.995497
0.995548
0.995598
0.995648
0.995697
0.995747
0.995796
0.995845
0.995894
0.995943
0.995991
0.996039
0.996087
0.996135
0.996182
0.996229
0.996276
0.996323
0.99637
0.996416
0.996462
0.996508
0.996553
0.996598
0.996644
0.996688
0.996733
0.996777
0.996821
0.996865
0.996909
0.996952
0.996995
0.997038
0.997081
0.997123
0.997165
0.997207
0.997248
0.99729
0.997331
0.997372
0.997412
0.997452
0.997492
0.997532
0.997572
0.997611
0.99765
0.997688
0.997727
0.997765
0.997803
0.997841
0.997878
0.997915
0.997952
0.997988
0.998025
0.998061
0.998096
0.998132
0.998167
0.998202
0.998236
0.99827
0.998304
0.998338
0.998372
0.998405
0.998438
0.99847
0.998503
0.998534
0.998566
0.998598
0.998629
0.998659
0.99869
0.99872
0.99875
0.99878
0.998809
0.998838
0.998867
0.998895
0.998923
0.998951
0.998978
0.999006
0.999032
0.999058
0.999083
0.999108
0.999132
0.999155
0.999178
0.999201
0.999222
0.999243
0.999264
0.999284
0.999304
0.999323
0.999341
0.99936
0.999377
0.999394
0.999411
0.999428
0.999444
0.999459
0.999474
0.999489
0.999503
0.999517
0.999531
0.999544
0.999557
0.999569
0.999582
0.999594
0.999605
0.999616
0.999627
0.999638
0.999649
0.999659
0.999669
0.999678
0.999687
0.999697
0.999705
0.999714
0.999722
0.99973
0.999738
0.999746
0.999753
0.999761
0.999768
0.999775
0.999781
0.999788
0.999794
0.9998
0.999806
0.999812
0.999818
0.999823
0.999829
0.999834
0.999839
0.999844
0.999848
0.999853
0.999857
0.999862
0.999866
0.99987
0.999874
0.999878
0.999882
0.999885
0.999889
0.999892
0.999896
0.999899
0.999902
0.999905
0.999908
0.999911
0.999914
0.999916
0.999919
0.999921
0.999924
0.999926
0.999929
0.999931
0.999933
0.999935
0.999937
0.999939
0.999941
0.999943
0.999945
0.999946
0.999948
0.99995
0.999951
0.999953
0.999954
0.999956
0.999957
0.999958
0.99996
0.999961
0.999962
0.999963
0.999965
0.999966
0.999967
0.999968
0.999969
0.99997
0.99997
0.999971
0.999972
0.999973
0.999974
0.999975
0.999975
0.999976
0.999977
0.999977
0.999978
0.999978
0.999979
0.99998
0.99998
0.999981
0.999981
0.999981
0.999982
0.999982
0.999983
0.999983
0.999983
0.999984
0.999984
0.999984
0.999985
0.999985
0.999985
0.999985
0.999985
0.999985
0.999986
0.999986
0.999986
0.999986
0.999986
0.999986
0.999986
0.999986
4.9289e-06
7.97193e-06
1.08087e-05
1.35496e-05
1.62355e-05
1.88849e-05
2.15086e-05
2.41128e-05
2.67019e-05
2.92789e-05
3.1846e-05
3.44047e-05
3.69564e-05
3.95019e-05
4.20422e-05
4.45779e-05
4.71095e-05
4.96374e-05
5.2162e-05
5.46837e-05
5.72027e-05
5.97193e-05
6.22336e-05
6.47458e-05
6.72562e-05
6.97648e-05
7.22718e-05
7.47773e-05
7.72814e-05
7.97842e-05
8.22858e-05
8.47861e-05
8.72854e-05
8.97837e-05
9.2281e-05
9.47774e-05
9.7273e-05
9.97677e-05
0.000102262
0.000104755
0.000107247
0.000109739
0.00011223
0.000114721
0.000117211
0.0001197
0.000122189
0.000124677
0.000127165
0.000129653
0.00013214
0.000134626
0.000137112