/*--------------------------------*- C++ -*----------------------------------*\
| =========                 |                                                 |
| \\      /  F ield         | foam-extend: Open Source CFD                    |
|  \\    /   O peration     | Version:     5.0                                |
|   \\  /    A nd           | Web:         http://www.foam-extend.org         |
|    \\/     M anipulation  |                                                 |
\*---------------------------------------------------------------------------*/
FoamFile
{
    version     2.0;
    format      ascii;
    class       volScalarField;
    location    "5000";
    object      S.water;
}
// * * * * * * * * * * * * * * * * * * * * * * * * * * * * * * * * * * * * * //

dimensions      [0 0 0 0 0 0 0];

internalField   nonuniform List<scalar> 
1500
(
0.999995
0.999992
0.999989
0.999986
0.999984
0.999981
0.999978
0.999976
0.999973
0.999971
0.999968
0.999966
0.999963
0.99996
0.999958
0.999955
0.999953
0.99995
0.999948
0.999945
0.999943
0.99994
0.999938
0.999935
0.999933
0.99993
0.999928
0.999925
0.999923
0.99992
0.999918
0.999915
0.999913
0.99991
0.999908
0.999905
0.999903
0.9999
0.999898
0.999895
0.999893
0.99989
0.999888
0.999885
0.999883
0.99988
0.999878
0.999875
0.999873
0.99987
0.999868
0.999865
0.999863
0.99986
0.999858
0.999855
0.999853
0.99985
0.999848
0.999845
0.999843
0.999841
0.999838
0.999836
0.999833
0.999831
0.999828
0.999826
0.999823
0.999821
0.999818
0.999816
0.999813
0.999811
0.999808
0.999806
0.999803
0.999801
0.999798
0.999796
0.999793
0.999791
0.999788
0.999786
0.999783
0.999781
0.999779
0.999776
0.999774
0.999771
0.999769
0.999766
0.999764
0.999761
0.999759
0.999756
0.999754
0.999751
0.999749
0.999746
0.999744
0.999741
0.999739
0.999736
0.999734
0.999731
0.999729
0.999727
0.999724
0.999722
0.999719
0.999717
0.999714
0.999712
0.999709
0.999707
0.999704
0.999702
0.999699
0.999697
0.999694
0.999692
0.999689
0.999687
0.999684
0.999682
0.99968
0.999677
0.999675
0.999672
0.99967
0.999667
0.999665
0.999662
0.99966
0.999657
0.999655
0.999652
0.99965
0.999647
0.999645
0.999642
0.99964
0.999637
0.999635
0.999633
0.99963
0.999628
0.999625
0.999623
0.99962
0.999618
0.999615
0.999613
0.99961
0.999608
0.999605
0.999603
0.9996
0.999598
0.999595
0.999593
0.999591
0.999588
0.999586
0.999583
0.999581
0.999578
0.999576
0.999573
0.999571
0.999568
0.999566
0.999563
0.999561
0.999558
0.999556
0.999553
0.999551
0.999549
0.999546
0.999544
0.999541
0.999539
0.999536
0.999534
0.999531
0.999529
0.999526
0.999524
0.999521
0.999519
0.999516
0.999514
0.999511
0.999509
0.999507
0.999504
0.999502
0.999499
0.999497
0.999494
0.999492
0.999489
0.999487
0.999484
0.999482
0.999479
0.999477
0.999474
0.999472
0.999469
0.999467
0.999465
0.999462
0.99946
0.999457
0.999455
0.999452
0.99945
0.999447
0.999445
0.999442
0.99944
0.999437
0.999435
0.999432
0.99943
0.999427
0.999425
0.999423
0.99942
0.999418
0.999415
0.999413
0.99941
0.999408
0.999405
0.999403
0.9994
0.999398
0.999395
0.999393
0.999383
0.99908
0.992042
0.979207
0.966527
0.954081
0.941872
0.929895
0.918146
0.906618
0.895306
0.884205
0.873311
0.862617
0.85212
0.841813
0.831694
0.821756
0.811997
0.802411
0.792994
0.783743
0.774654
0.765723
0.756946
0.74832
0.739841
0.731507
0.723312
0.715256
0.707334
0.699544
0.691882
0.684346
0.676933
0.669641
0.662466
0.655407
0.64846
0.641624
0.634896
0.628274
0.621755
0.615338
0.60902
0.6028
0.596675
0.590643
0.584703
0.578852
0.573089
0.567413
0.561821
0.556311
0.550883
0.545534
0.540263
0.535069
0.529949
0.524904
0.51993
0.515027
0.510194
0.505428
0.50073
0.496097
0.491529
0.487023
0.48258
0.478198
0.473876
0.469612
0.465406
0.461256
0.457163
0.453123
0.449138
0.445205
0.441324
0.437494
0.433714
0.429983
0.4263
0.422665
0.419077
0.415534
0.412036
0.408583
0.405173
0.401806
0.398481
0.395198
0.391955
0.388753
0.385589
0.382465
0.379379
0.37633
0.373318
0.370343
0.367403
0.364498
0.361628
0.358792
0.35599
0.353221
0.350484
0.347779
0.345105
0.342463
0.339851
0.337269
0.334717
0.332194
0.329699
0.327233
0.324795
0.322384
0.32
0.317643
0.315312
0.313007
0.310727
0.308473
0.306243
0.304037
0.301856
0.299698
0.297563
0.295452
0.293363
0.291296
0.289252
0.287229
0.285228
0.283247
0.281288
0.279349
0.27743
0.275531
0.273652
0.271792
0.269952
0.26813
0.266327
0.264542
0.262776
0.261027
0.259296
0.257582
0.255886
0.254206
0.252543
0.250897
0.249267
0.247653
0.246055
0.244472
0.242905
0.241354
0.239817
0.238295
0.236788
0.235295
0.233817
0.232352
0.230902
0.229465
0.228042
0.226633
0.225236
0.223853
0.222483
0.221125
0.21978
0.218447
0.217127
0.215819
0.214523
0.213239
0.211966
0.210705
0.209455
0.208217
0.20699
0.205774
0.204569
0.203374
0.20219
0.201017
0.199854
0.198701
0.197559
0.196426
0.195303
0.194191
0.193087
0.191994
0.19091
0.189835
0.188769
0.187713
0.186665
0.185627
0.184597
0.183576
0.182564
0.18156
0.180565
0.179578
0.178599
0.177628
0.176666
0.175711
0.174764
0.173826
0.172894
0.171971
0.171055
0.170146
0.169245
0.168351
0.167465
0.166585
0.165713
0.164847
0.163989
0.163137
0.162292
0.161454
0.160623
0.159798
0.158979
0.158167
0.157361
0.156562
0.155769
0.154982
0.154201
0.153426
0.152657
0.151894
0.151137
0.150385
0.149639
0.148899
0.148165
0.147436
0.146713
0.145995
0.145282
0.144575
0.143873
0.143176
0.142485
0.141798
0.141117
0.140441
0.139769
0.139103
0.138441
0.137785
0.137133
0.136486
0.135843
0.135205
0.134572
0.133943
0.133319
0.132699
0.132084
0.131473
0.130866
0.130263
0.129665
0.129071
0.128482
0.127896
0.127314
0.126737
0.126163
0.125594
0.125028
0.124467
0.123909
0.123355
0.122805
0.122258
0.121716
0.121177
0.120641
0.120109
0.119581
0.119057
0.118535
0.118018
0.117504
0.116993
0.116486
0.115982
0.115481
0.114984
0.114489
0.113999
0.113511
0.113026
0.112545
0.112067
0.111592
0.11112
0.110651
0.110185
0.109722
0.109262
0.108805
0.108351
0.107899
0.107451
0.107005
0.106562
0.106122
0.105685
0.105251
0.104819
0.10439
0.103963
0.103539
0.103118
0.102699
0.102283
0.10187
0.101459
0.10105
0.100644
0.100241
0.0998396
0.0994409
0.0990446
0.0986507
0.0982591
0.0978699
0.097483
0.0970984
0.0967161
0.096336
0.0959582
0.0955826
0.0952092
0.094838
0.0944689
0.094102
0.0937372
0.0933746
0.093014
0.0926555
0.092299
0.0919446
0.0915923
0.0912419
0.0908935
0.0905471
0.0902027
0.0898602
0.0895196
0.0891809
0.0888442
0.0885093
0.0881762
0.0878451
0.0875157
0.0871882
0.0868625
0.0865385
0.0862163
0.0858959
0.0855773
0.0852603
0.0849451
0.0846316
0.0843198
0.0840097
0.0837012
0.0833943
0.0830891
0.0827856
0.0824836
0.0821832
0.0818844
0.0815872
0.0812916
0.0809974
0.0807049
0.0804138
0.0801243
0.0798362
0.0795496
0.0792646
0.0789809
0.0786987
0.078418
0.0781387
0.0778608
0.0775843
0.0773092
0.0770355
0.0767632
0.0764922
0.0762225
0.0759543
0.0756873
0.0754217
0.0751573
0.0748943
0.0746326
0.0743721
0.0741129
0.073855
0.0735983
0.0733429
0.0730886
0.0728356
0.0725839
0.0723333
0.0720839
0.0718357
0.0715887
0.0713428
0.0710981
0.0708545
0.0706121
0.0703708
0.0701307
0.0698916
0.0696537
0.0694168
0.0691811
0.0689464
0.0687128
0.0684802
0.0682487
0.0680183
0.0677889
0.0675605
0.0673332
0.0671068
0.0668815
0.0666572
0.0664338
0.0662115
0.0659901
0.0657697
0.0655503
0.0653318
0.0651143
0.0648977
0.0646821
0.0644674
0.0642536
0.0640407
0.0638287
0.0636176
0.0634075
0.0631982
0.0629898
0.0627822
0.0625756
0.0623698
0.0621648
0.0619607
0.0617575
0.0615551
0.0613535
0.0611527
0.0609528
0.0607537
0.0605553
0.0603578
0.0601611
0.0599652
0.05977
0.0595756
0.059382
0.0591892
0.0589971
0.0588058
0.0586152
0.0584254
0.0582363
0.058048
0.0578604
0.0576735
0.0574873
0.0573018
0.0571171
0.056933
0.0567497
0.056567
0.056385
0.0562038
0.0560231
0.0558432
0.0556639
0.0554853
0.0553074
0.0551301
0.0549534
0.0547775
0.0546021
0.0544274
0.0542533
0.0540798
0.053907
0.0537348
0.0535632
0.0533922
0.0532218
0.053052
0.0528828
0.0527142
0.0525462
0.0523788
0.0522119
0.0520457
0.05188
0.0517148
0.0515503
0.0513863
0.0512228
0.05106
0.0508976
0.0507358
0.0505746
0.0504138
0.0502537
0.050094
0.0499349
0.0497763
0.0496182
0.0494607
0.0493036
0.0491471
0.048991
0.0488355
0.0486805
0.0485259
0.0483719
0.0482183
0.0480653
0.0479127
0.0477606
0.0476089
0.0474578
0.0473071
0.0471569
0.0470071
0.0468578
0.046709
0.0465606
0.0464126
0.0462652
0.0461181
0.0459715
0.0458254
0.0456796
0.0455343
0.0453895
0.045245
0.045101
0.0449575
0.0448143
0.0446716
0.0445292
0.0443873
0.0442458
0.0441047
0.043964
0.0438237
0.0436838
0.0435443
0.0434052
0.0432665
0.0431281
0.0429902
0.0428526
0.0427154
0.0425786
0.0424422
0.0423062
0.0421705
0.0420352
0.0419002
0.0417657
0.0416314
0.0414976
0.0413641
0.0412309
0.0410982
0.0409657
0.0408336
0.0407019
0.0405705
0.0404394
0.0403087
0.0401784
0.0400483
0.0399186
0.0397893
0.0396602
0.0395315
0.0394031
0.0392751
0.0391473
0.0390199
0.0388928
0.038766
0.0386396
0.0385134
0.0383876
0.0382621
0.0381368
0.0380119
0.0378873
0.037763
0.037639
0.0375153
0.0373919
0.0372688
0.037146
0.0370234
0.0369012
0.0367792
0.0366576
0.0365362
0.0364151
0.0362943
0.0361738
0.0360535
0.0359336
0.0358139
0.0356944
0.0355753
0.0354564
0.0353378
0.0352195
0.0351014
0.0349836
0.0348661
0.0347488
0.0346318
0.034515
0.0343986
0.0342823
0.0341663
0.0340506
0.0339351
0.0338199
0.033705
0.0335903
0.0334758
0.0333616
0.0332476
0.0331339
0.0330204
0.0329071
0.0327941
0.0326814
0.0325688
0.0324566
0.0323445
0.0322327
0.0321211
0.0320098
0.0318986
0.0317878
0.0316771
0.0315667
0.0314565
0.0313465
0.0312368
0.0311272
0.0310179
0.0309089
0.0308
0.0306914
0.030583
0.0304748
0.0303668
0.030259
0.0301515
0.0300441
0.029937
0.0298301
0.0297234
0.0296169
0.0295106
0.0294046
0.0292987
0.0291931
0.0290876
0.0289824
0.0288773
0.0287725
0.0286679
0.0285634
0.0284592
0.0283552
0.0282514
0.0281477
0.0280443
0.0279411
0.027838
0.0277352
0.0276326
0.0275301
0.0274279
0.0273258
0.0272239
0.0271223
0.0270208
0.0269195
0.0268184
0.0267175
0.0266167
0.0265162
0.0264158
0.0263157
0.0262157
0.0261159
0.0260163
0.0259168
0.0258176
0.0257185
0.0256197
0.025521
0.0254224
0.0253241
0.0252259
0.025128
0.0250302
0.0249325
0.0248351
0.0247378
0.0246408
0.0245438
0.0244471
0.0243505
0.0242542
0.0241579
0.0240619
0.023966
0.0238703
0.0237748
0.0236795
0.0235843
0.0234893
0.0233945
0.0232998
0.0232053
0.023111
0.0230168
0.0229228
0.022829
0.0227354
0.0226419
0.0225486
0.0224554
0.0223624
0.0222696
0.022177
0.0220845
0.0219922
0.0219
0.021808
0.0217162
0.0216245
0.021533
0.0214417
0.0213505
0.0212595
0.0211687
0.021078
0.0209875
0.0208971
0.0208069
0.0207169
0.020627
0.0205373
0.0204477
0.0203583
0.0202691
0.02018
0.0200911
0.0200023
0.0199137
0.0198253
0.019737
0.0196489
0.0195609
0.0194731
0.0193855
0.019298
0.0192107
0.0191235
0.0190365
0.0189496
0.0188629
0.0187764
0.01869
0.0186038
0.0185177
0.0184318
0.018346
0.0182604
0.018175
0.0180897
0.0180045
0.0179196
0.0178347
0.0177501
0.0176655
0.0175812
0.017497
0.017413
0.0173291
0.0172453
0.0171618
0.0170783
0.0169951
0.016912
0.016829
0.0167462
0.0166636
0.0165811
0.0164987
0.0164166
0.0163345
0.0162527
0.0161709
0.0160894
0.016008
0.0159267
0.0158457
0.0157647
0.0156839
0.0156033
0.0155229
0.0154425
0.0153624
0.0152824
0.0152025
0.0151229
0.0150433
0.0149639
0.0148847
0.0148057
0.0147268
0.014648
0.0145694
0.014491
0.0144127
0.0143346
0.0142566
0.0141788
0.0141012
0.0140237
0.0139463
0.0138692
0.0137921
0.0137153
0.0136386
0.013562
0.0134856
0.0134094
0.0133334
0.0132574
0.0131817
0.0131061
0.0130307
0.0129554
0.0128803
0.0128054
0.0127306
0.0126559
0.0125815
0.0125072
0.012433
0.012359
0.0122852
0.0122116
0.0121381
0.0120647
0.0119916
0.0119186
0.0118457
0.011773
0.0117005
0.0116282
0.011556
0.0114839
0.0114121
0.0113404
0.0112689
0.0111975
0.0111263
0.0110553
0.0109844
0.0109137
0.0108432
0.0107728
0.0107026
0.0106326
0.0105627
0.0104931
0.0104235
0.0103542
0.010285
0.010216
0.0101472
0.0100785
0.01001
0.00994168
0.00987353
0.00980555
0.00973774
0.00967011
0.00960265
0.00953537
0.00946825
0.00940132
0.00933456
0.00926797
0.00920156
0.00913533
0.00906927
0.00900339
0.00893769
0.00887217
0.00880682
0.00874166
0.00867667
0.00861186
0.00854724
0.00848279
0.00841853
0.00835445
0.00829054
0.00822683
0.00816329
0.00809994
0.00803677
0.00797379
0.00791099
0.00784838
0.00778596
0.00772372
0.00766166
0.0075998
0.00753812
0.00747663
0.00741533
0.00735422
0.0072933
0.00723258
0.00717204
0.00711169
0.00705154
0.00699158
0.00693181
0.00687224
0.00681286
0.00675368
0.00669469
0.0066359
0.0065773
0.00651891
0.00646071
0.00640271
0.00634491
0.00628731
0.00622991
0.00617271
0.00611571
0.00605892
0.00600232
0.00594594
0.00588975
0.00583377
0.005778
0.00572243
0.00566707
0.00561192
0.00555697
0.00550224
0.00544771
0.00539339
0.00533929
0.00528539
0.00523171
0.00517824
0.00512499
0.00507195
0.00501912
0.00496651
0.00491412
0.00486194
0.00480999
0.00475825
0.00470673
0.00465543
0.00460435
0.00455349
0.00450286
0.00445245
0.00440226
0.0043523
0.00430256
0.00425305
0.00420377
0.00415472
0.00410589
0.00405729
0.00400893
0.00396079
0.00391289
0.00386522
0.00381778
0.00377058
0.00372361
0.00367688
0.00363039
0.00358413
0.00353812
0.00349234
0.0034468
0.00340151
0.00335645
0.00331164
0.00326708
0.00322276
0.00317868
0.00313485
0.00309127
0.00304794
0.00300486
0.00296203
0.00291944
0.00287712
0.00283504
0.00279322
0.00275165
0.00271035
0.00266929
0.0026285
0.00258796
0.00254769
0.00250767
0.00246792
0.00242843
0.00238921
0.00235025
0.00231156
0.00227313
0.00223497
0.00219708
0.00215946
0.00212212
0.00208504
0.00204824
0.00201171
0.00197546
0.00193949
0.00190379
0.00186837
0.00183323
0.00179838
0.0017638
0.00172951
0.0016955
0.00166178
0.00162835
0.0015952
0.00156234
0.00152977
0.0014975
0.00146551
0.00143382
0.00140243
0.00137133
0.00134052
0.00131002
0.00127981
0.00124991
0.00122031
0.00119101
0.00116201
0.00113332
0.00110494
0.00107686
0.00104909
0.00102164
0.00099449
0.000967912
0.000941993
0.000916718
0.000892072
0.00086804
0.000844608
0.000821763
0.00079949
0.000777778
0.000756612
0.000735981
0.000715871
0.000696272
0.00067717
0.000658554
0.000640413
0.000622736
0.000605513
0.000588731
0.000572381
0.000556453
0.000540937
0.000525822
0.0005111
0.000496761
0.000482796
0.000469197
0.000455953
0.000443057
0.000430501
0.000418275
0.000406373
0.000394787
0.000383507
0.000372529
0.000361843
0.000351442
0.000341321
0.000331471
0.000321887
0.000312561
0.000303487
0.000294659
0.000286071
0.000277718
0.000269592
0.000261688
0.000254001
0.000246526
0.000239256
0.000232187
0.000225314
0.000218632
0.000212135
0.00020582
0.000199681
0.000193714
0.000187914
0.000182278
0.000176801
0.000171478
0.000166307
0.000161282
0.000156401
0.000151659
0.000147053
0.000142579
0.000138234
0.000134014
0.000129916
0.000125936
0.000122073
0.000118322
0.000114681
0.000111146
0.000107715
0.000104385
0.000101154
9.80182e-05
9.49756e-05
9.20237e-05
8.91599e-05
8.63819e-05
8.36874e-05
8.10742e-05
7.854e-05
7.60826e-05
7.37001e-05
7.13903e-05
6.91513e-05
6.69812e-05
6.4878e-05
6.284e-05
6.08654e-05
5.89524e-05
5.70994e-05
5.53048e-05
5.35668e-05
5.18841e-05
5.02551e-05
4.86783e-05
4.71523e-05
4.56758e-05
4.42473e-05
4.28657e-05
4.15296e-05
4.02378e-05
3.89891e-05
3.77824e-05
3.66165e-05
3.54903e-05
3.44029e-05
3.33531e-05
3.23401e-05
3.13628e-05
3.04203e-05
2.95117e-05
2.86362e-05
2.77929e-05
2.6981e-05
2.61997e-05
2.54483e-05
2.4726e-05
2.40321e-05
2.33661e-05
2.27271e-05
2.21146e-05
2.15281e-05
2.09668e-05
2.04303e-05
1.9918e-05
1.94294e-05
1.89641e-05
1.85215e-05
1.81013e-05
1.77029e-05
1.73261e-05
1.69704e-05
1.66355e-05
1.6321e-05
1.60266e-05
1.57521e-05
1.54971e-05
1.52613e-05
1.50446e-05
1.48468e-05
1.46676e-05
1.45068e-05
1.43642e-05
1.42399e-05
1.41335e-05
1.4045e-05
1.39743e-05
1.39214e-05
1.38861e-05
1.38685e-05
)
;

boundaryField
{
    bottom
    {
        type            calculated;
        value           uniform 0.5;
    }
    top
    {
        type            calculated;
        value           uniform 1.38685e-05;
    }
    walls
    {
        type            calculated;
        value           nonuniform List<scalar> 
6000
(
0.999995
0.999992
0.999989
0.999986
0.999984
0.999981
0.999978
0.999976
0.999973
0.999971
0.999968
0.999966
0.999963
0.99996
0.999958
0.999955
0.999953
0.99995
0.999948
0.999945
0.999943
0.99994
0.999938
0.999935
0.999933
0.99993
0.999928
0.999925
0.999923
0.99992
0.999918
0.999915
0.999913
0.99991
0.999908
0.999905
0.999903
0.9999
0.999898
0.999895
0.999893
0.99989
0.999888
0.999885
0.999883
0.99988
0.999878
0.999875
0.999873
0.99987
0.999868
0.999865
0.999863
0.99986
0.999858
0.999855
0.999853
0.99985
0.999848
0.999845
0.999843
0.999841
0.999838
0.999836
0.999833
0.999831
0.999828
0.999826
0.999823
0.999821
0.999818
0.999816
0.999813
0.999811
0.999808
0.999806
0.999803
0.999801
0.999798
0.999796
0.999793
0.999791
0.999788
0.999786
0.999783
0.999781
0.999779
0.999776
0.999774
0.999771
0.999769
0.999766
0.999764
0.999761
0.999759
0.999756
0.999754
0.999751
0.999749
0.999746
0.999744
0.999741
0.999739
0.999736
0.999734
0.999731
0.999729
0.999727
0.999724
0.999722
0.999719
0.999717
0.999714
0.999712
0.999709
0.999707
0.999704
0.999702
0.999699
0.999697
0.999694
0.999692
0.999689
0.999687
0.999684
0.999682
0.99968
0.999677
0.999675
0.999672
0.99967
0.999667
0.999665
0.999662
0.99966
0.999657
0.999655
0.999652
0.99965
0.999647
0.999645
0.999642
0.99964
0.999637
0.999635
0.999633
0.99963
0.999628
0.999625
0.999623
0.99962
0.999618
0.999615
0.999613
0.99961
0.999608
0.999605
0.999603
0.9996
0.999598
0.999595
0.999593
0.999591
0.999588
0.999586
0.999583
0.999581
0.999578
0.999576
0.999573
0.999571
0.999568
0.999566
0.999563
0.999561
0.999558
0.999556
0.999553
0.999551
0.999549
0.999546
0.999544
0.999541
0.999539
0.999536
0.999534
0.999531
0.999529
0.999526
0.999524
0.999521
0.999519
0.999516
0.999514
0.999511
0.999509
0.999507
0.999504
0.999502
0.999499
0.999497
0.999494
0.999492
0.999489
0.999487
0.999484
0.999482
0.999479
0.999477
0.999474
0.999472
0.999469
0.999467
0.999465
0.999462
0.99946
0.999457
0.999455
0.999452
0.99945
0.999447
0.999445
0.999442
0.99944
0.999437
0.999435
0.999432
0.99943
0.999427
0.999425
0.999423
0.99942
0.999418
0.999415
0.999413
0.99941
0.999408
0.999405
0.999403
0.9994
0.999398
0.999395
0.999393
0.999383
0.99908
0.992042
0.979207
0.966527
0.954081
0.941872
0.929895
0.918146
0.906618
0.895306
0.884205
0.873311
0.862617
0.85212
0.841813
0.831694
0.821756
0.811997
0.802411
0.792994
0.783743
0.774654
0.765723
0.756946
0.74832
0.739841
0.731507
0.723312
0.715256
0.707334
0.699544
0.691882
0.684346
0.676933
0.669641
0.662466
0.655407
0.64846
0.641624
0.634896
0.628274
0.621755
0.615338
0.60902
0.6028
0.596675
0.590643
0.584703
0.578852
0.573089
0.567413
0.561821
0.556311
0.550883
0.545534
0.540263
0.535069
0.529949
0.524904
0.51993
0.515027
0.510194
0.505428
0.50073
0.496097
0.491529
0.487023
0.48258
0.478198
0.473876
0.469612
0.465406
0.461256
0.457163
0.453123
0.449138
0.445205
0.441324
0.437494
0.433714
0.429983
0.4263
0.422665
0.419077
0.415534
0.412036
0.408583
0.405173
0.401806
0.398481
0.395198
0.391955
0.388753
0.385589
0.382465
0.379379
0.37633
0.373318
0.370343
0.367403
0.364498
0.361628
0.358792
0.35599
0.353221
0.350484
0.347779
0.345105
0.342463
0.339851
0.337269
0.334717
0.332194
0.329699
0.327233
0.324795
0.322384
0.32
0.317643
0.315312
0.313007
0.310727
0.308473
0.306243
0.304037
0.301856
0.299698
0.297563
0.295452
0.293363
0.291296
0.289252
0.287229
0.285228
0.283247
0.281288
0.279349
0.27743
0.275531
0.273652
0.271792
0.269952
0.26813
0.266327
0.264542
0.262776
0.261027
0.259296
0.257582
0.255886
0.254206
0.252543
0.250897
0.249267
0.247653
0.246055
0.244472
0.242905
0.241354
0.239817
0.238295
0.236788
0.235295
0.233817
0.232352
0.230902
0.229465
0.228042
0.226633
0.225236
0.223853
0.222483
0.221125
0.21978
0.218447
0.217127
0.215819
0.214523
0.213239
0.211966
0.210705
0.209455
0.208217
0.20699
0.205774
0.204569
0.203374
0.20219
0.201017
0.199854
0.198701
0.197559
0.196426
0.195303
0.194191
0.193087
0.191994
0.19091
0.189835
0.188769
0.187713
0.186665
0.185627
0.184597
0.183576
0.182564
0.18156
0.180565
0.179578
0.178599
0.177628
0.176666
0.175711
0.174764
0.173826
0.172894
0.171971
0.171055
0.170146
0.169245
0.168351
0.167465
0.166585
0.165713
0.164847
0.163989
0.163137
0.162292
0.161454
0.160623
0.159798
0.158979
0.158167
0.157361
0.156562
0.155769
0.154982
0.154201
0.153426
0.152657
0.151894
0.151137
0.150385
0.149639
0.148899
0.148165
0.147436
0.146713
0.145995
0.145282
0.144575
0.143873
0.143176
0.142485
0.141798
0.141117
0.140441
0.139769
0.139103
0.138441
0.137785
0.137133
0.136486
0.135843
0.135205
0.134572
0.133943
0.133319
0.132699
0.132084
0.131473
0.130866
0.130263
0.129665
0.129071
0.128482
0.127896
0.127314
0.126737
0.126163
0.125594
0.125028
0.124467
0.123909
0.123355
0.122805
0.122258
0.121716
0.121177
0.120641
0.120109
0.119581
0.119057
0.118535
0.118018
0.117504
0.116993
0.116486
0.115982
0.115481
0.114984
0.114489
0.113999
0.113511
0.113026
0.112545
0.112067
0.111592
0.11112
0.110651
0.110185
0.109722
0.109262
0.108805
0.108351
0.107899
0.107451
0.107005
0.106562
0.106122
0.105685
0.105251
0.104819
0.10439
0.103963
0.103539
0.103118
0.102699
0.102283
0.10187
0.101459
0.10105
0.100644
0.100241
0.0998396
0.0994409
0.0990446
0.0986507
0.0982591
0.0978699
0.097483
0.0970984
0.0967161
0.096336
0.0959582
0.0955826
0.0952092
0.094838
0.0944689
0.094102
0.0937372
0.0933746
0.093014
0.0926555
0.092299
0.0919446
0.0915923
0.0912419
0.0908935
0.0905471
0.0902027
0.0898602
0.0895196
0.0891809
0.0888442
0.0885093
0.0881762
0.0878451
0.0875157
0.0871882
0.0868625
0.0865385
0.0862163
0.0858959
0.0855773
0.0852603
0.0849451
0.0846316
0.0843198
0.0840097
0.0837012
0.0833943
0.0830891
0.0827856
0.0824836
0.0821832
0.0818844
0.0815872
0.0812916
0.0809974
0.0807049
0.0804138
0.0801243
0.0798362
0.0795496
0.0792646
0.0789809
0.0786987
0.078418
0.0781387
0.0778608
0.0775843
0.0773092
0.0770355
0.0767632
0.0764922
0.0762225
0.0759543
0.0756873
0.0754217
0.0751573
0.0748943
0.0746326
0.0743721
0.0741129
0.073855
0.0735983
0.0733429
0.0730886
0.0728356
0.0725839
0.0723333
0.0720839
0.0718357
0.0715887
0.0713428
0.0710981
0.0708545
0.0706121
0.0703708
0.0701307
0.0698916
0.0696537
0.0694168
0.0691811
0.0689464
0.0687128
0.0684802
0.0682487
0.0680183
0.0677889
0.0675605
0.0673332
0.0671068
0.0668815
0.0666572
0.0664338
0.0662115
0.0659901
0.0657697
0.0655503
0.0653318
0.0651143
0.0648977
0.0646821
0.0644674
0.0642536
0.0640407
0.0638287
0.0636176
0.0634075
0.0631982
0.0629898
0.0627822
0.0625756
0.0623698
0.0621648
0.0619607
0.0617575
0.0615551
0.0613535
0.0611527
0.0609528
0.0607537
0.0605553
0.0603578
0.0601611
0.0599652
0.05977
0.0595756
0.059382
0.0591892
0.0589971
0.0588058
0.0586152
0.0584254
0.0582363
0.058048
0.0578604
0.0576735
0.0574873
0.0573018
0.0571171
0.056933
0.0567497
0.056567
0.056385
0.0562038
0.0560231
0.0558432
0.0556639
0.0554853
0.0553074
0.0551301
0.0549534
0.0547775
0.0546021
0.0544274
0.0542533
0.0540798
0.053907
0.0537348
0.0535632
0.0533922
0.0532218
0.053052
0.0528828
0.0527142
0.0525462
0.0523788
0.0522119
0.0520457
0.05188
0.0517148
0.0515503
0.0513863
0.0512228
0.05106
0.0508976
0.0507358
0.0505746
0.0504138
0.0502537
0.050094
0.0499349
0.0497763
0.0496182
0.0494607
0.0493036
0.0491471
0.048991
0.0488355
0.0486805
0.0485259
0.0483719
0.0482183
0.0480653
0.0479127
0.0477606
0.0476089
0.0474578
0.0473071
0.0471569
0.0470071
0.0468578
0.046709
0.0465606
0.0464126
0.0462652
0.0461181
0.0459715
0.0458254
0.0456796
0.0455343
0.0453895
0.045245
0.045101
0.0449575
0.0448143
0.0446716
0.0445292
0.0443873
0.0442458
0.0441047
0.043964
0.0438237
0.0436838
0.0435443
0.0434052
0.0432665
0.0431281
0.0429902
0.0428526
0.0427154
0.0425786
0.0424422
0.0423062
0.0421705
0.0420352
0.0419002
0.0417657
0.0416314
0.0414976
0.0413641
0.0412309
0.0410982
0.0409657
0.0408336
0.0407019
0.0405705
0.0404394
0.0403087
0.0401784
0.0400483
0.0399186
0.0397893
0.0396602
0.0395315
0.0394031
0.0392751
0.0391473
0.0390199
0.0388928
0.038766
0.0386396
0.0385134
0.0383876
0.0382621
0.0381368
0.0380119
0.0378873
0.037763
0.037639
0.0375153
0.0373919
0.0372688
0.037146
0.0370234
0.0369012
0.0367792
0.0366576
0.0365362
0.0364151
0.0362943
0.0361738
0.0360535
0.0359336
0.0358139
0.0356944
0.0355753
0.0354564
0.0353378
0.0352195
0.0351014
0.0349836
0.0348661
0.0347488
0.0346318
0.034515
0.0343986
0.0342823
0.0341663
0.0340506
0.0339351
0.0338199
0.033705
0.0335903
0.0334758
0.0333616
0.0332476
0.0331339
0.0330204
0.0329071
0.0327941
0.0326814
0.0325688
0.0324566
0.0323445
0.0322327
0.0321211
0.0320098
0.0318986
0.0317878
0.0316771
0.0315667
0.0314565
0.0313465
0.0312368
0.0311272
0.0310179
0.0309089
0.0308
0.0306914
0.030583
0.0304748
0.0303668
0.030259
0.0301515
0.0300441
0.029937
0.0298301
0.0297234
0.0296169
0.0295106
0.0294046
0.0292987
0.0291931
0.0290876
0.0289824
0.0288773
0.0287725
0.0286679
0.0285634
0.0284592
0.0283552
0.0282514
0.0281477
0.0280443
0.0279411
0.027838
0.0277352
0.0276326
0.0275301
0.0274279
0.0273258
0.0272239
0.0271223
0.0270208
0.0269195
0.0268184
0.0267175
0.0266167
0.0265162
0.0264158
0.0263157
0.0262157
0.0261159
0.0260163
0.0259168
0.0258176
0.0257185
0.0256197
0.025521
0.0254224
0.0253241
0.0252259
0.025128
0.0250302
0.0249325
0.0248351
0.0247378
0.0246408
0.0245438
0.0244471
0.0243505
0.0242542
0.0241579
0.0240619
0.023966
0.0238703
0.0237748
0.0236795
0.0235843
0.0234893
0.0233945
0.0232998
0.0232053
0.023111
0.0230168
0.0229228
0.022829
0.0227354
0.0226419
0.0225486
0.0224554
0.0223624
0.0222696
0.022177
0.0220845
0.0219922
0.0219
0.021808
0.0217162
0.0216245
0.021533
0.0214417
0.0213505
0.0212595
0.0211687
0.021078
0.0209875
0.0208971
0.0208069
0.0207169
0.020627
0.0205373
0.0204477
0.0203583
0.0202691
0.02018
0.0200911
0.0200023
0.0199137
0.0198253
0.019737
0.0196489
0.0195609
0.0194731
0.0193855
0.019298
0.0192107
0.0191235
0.0190365
0.0189496
0.0188629
0.0187764
0.01869
0.0186038
0.0185177
0.0184318
0.018346
0.0182604
0.018175
0.0180897
0.0180045
0.0179196
0.0178347
0.0177501
0.0176655
0.0175812
0.017497
0.017413
0.0173291
0.0172453
0.0171618
0.0170783
0.0169951
0.016912
0.016829
0.0167462
0.0166636
0.0165811
0.0164987
0.0164166
0.0163345
0.0162527
0.0161709
0.0160894
0.016008
0.0159267
0.0158457
0.0157647
0.0156839
0.0156033
0.0155229
0.0154425
0.0153624
0.0152824
0.0152025
0.0151229
0.0150433
0.0149639
0.0148847
0.0148057
0.0147268
0.014648
0.0145694
0.014491
0.0144127
0.0143346
0.0142566
0.0141788
0.0141012
0.0140237
0.0139463
0.0138692
0.0137921
0.0137153
0.0136386
0.013562
0.0134856
0.0134094
0.0133334
0.0132574
0.0131817
0.0131061
0.0130307
0.0129554
0.0128803
0.0128054
0.0127306
0.0126559
0.0125815
0.0125072
0.012433
0.012359
0.0122852
0.0122116
0.0121381
0.0120647
0.0119916
0.0119186
0.0118457
0.011773
0.0117005
0.0116282
0.011556
0.0114839
0.0114121
0.0113404
0.0112689
0.0111975
0.0111263
0.0110553
0.0109844
0.0109137
0.0108432
0.0107728
0.0107026
0.0106326
0.0105627
0.0104931
0.0104235
0.0103542
0.010285
0.010216
0.0101472
0.0100785
0.01001
0.00994168
0.00987353
0.00980555
0.00973774
0.00967011
0.00960265
0.00953537
0.00946825
0.00940132
0.00933456
0.00926797
0.00920156
0.00913533
0.00906927
0.00900339
0.00893769
0.00887217
0.00880682
0.00874166
0.00867667
0.00861186
0.00854724
0.00848279
0.00841853
0.00835445
0.00829054
0.00822683
0.00816329
0.00809994
0.00803677
0.00797379
0.00791099
0.00784838
0.00778596
0.00772372
0.00766166
0.0075998
0.00753812
0.00747663
0.00741533
0.00735422
0.0072933
0.00723258
0.00717204
0.00711169
0.00705154
0.00699158
0.00693181
0.00687224
0.00681286
0.00675368
0.00669469
0.0066359
0.0065773
0.00651891
0.00646071
0.00640271
0.00634491
0.00628731
0.00622991
0.00617271
0.00611571
0.00605892
0.00600232
0.00594594
0.00588975
0.00583377
0.005778
0.00572243
0.00566707
0.00561192
0.00555697
0.00550224
0.00544771
0.00539339
0.00533929
0.00528539
0.00523171
0.00517824
0.00512499
0.00507195
0.00501912
0.00496651
0.00491412
0.00486194
0.00480999
0.00475825
0.00470673
0.00465543
0.00460435
0.00455349
0.00450286
0.00445245
0.00440226
0.0043523
0.00430256
0.00425305
0.00420377
0.00415472
0.00410589
0.00405729
0.00400893
0.00396079
0.00391289
0.00386522
0.00381778
0.00377058
0.00372361
0.00367688
0.00363039
0.00358413
0.00353812
0.00349234
0.0034468
0.00340151
0.00335645
0.00331164
0.00326708
0.00322276
0.00317868
0.00313485
0.00309127
0.00304794
0.00300486
0.00296203
0.00291944
0.00287712
0.00283504
0.00279322
0.00275165
0.00271035
0.00266929
0.0026285
0.00258796
0.00254769
0.00250767
0.00246792
0.00242843
0.00238921
0.00235025
0.00231156
0.00227313
0.00223497
0.00219708
0.00215946
0.00212212
0.00208504
0.00204824
0.00201171
0.00197546
0.00193949
0.00190379
0.00186837
0.00183323
0.00179838
0.0017638
0.00172951
0.0016955
0.00166178
0.00162835
0.0015952
0.00156234
0.00152977
0.0014975
0.00146551
0.00143382
0.00140243
0.00137133
0.00134052
0.00131002
0.00127981
0.00124991
0.00122031
0.00119101
0.00116201
0.00113332
0.00110494
0.00107686
0.00104909
0.00102164
0.00099449
0.000967912
0.000941993
0.000916718
0.000892072
0.00086804
0.000844608
0.000821763
0.00079949
0.000777778
0.000756612
0.000735981
0.000715871
0.000696272
0.00067717
0.000658554
0.000640413
0.000622736
0.000605513
0.000588731
0.000572381
0.000556453
0.000540937
0.000525822
0.0005111
0.000496761
0.000482796
0.000469197
0.000455953
0.000443057
0.000430501
0.000418275
0.000406373
0.000394787
0.000383507
0.000372529
0.000361843
0.000351442
0.000341321
0.000331471
0.000321887
0.000312561
0.000303487
0.000294659
0.000286071
0.000277718
0.000269592
0.000261688
0.000254001
0.000246526
0.000239256
0.000232187
0.000225314
0.000218632
0.000212135
0.00020582
0.000199681
0.000193714
0.000187914
0.000182278
0.000176801
0.000171478
0.000166307
0.000161282
0.000156401
0.000151659
0.000147053
0.000142579
0.000138234
0.000134014
0.000129916
0.000125936
0.000122073
0.000118322
0.000114681
0.000111146
0.000107715
0.000104385
0.000101154
9.80182e-05
9.49756e-05
9.20237e-05
8.91599e-05
8.63819e-05
8.36874e-05
8.10742e-05
7.854e-05
7.60826e-05
7.37001e-05
7.13903e-05
6.91513e-05
6.69812e-05
6.4878e-05
6.284e-05
6.08654e-05
5.89524e-05
5.70994e-05
5.53048e-05
5.35668e-05