/*--------------------------------*- C++ -*----------------------------------*\
| =========                 |                                                 |
| \\      /  F ield         | foam-extend: Open Source CFD                    |
|  \\    /   O peration     | Version:     5.0                                |
|   \\  /    A nd           | Web:         http://www.foam-extend.org         |
|    \\/     M anipulation  |                                                 |
\*---------------------------------------------------------------------------*/
FoamFile
{
    version     2.0;
    format      ascii;
    class       volVectorField;
    location    "5000";
    object      U.gas;
}
// * * * * * * * * * * * * * * * * * * * * * * * * * * * * * * * * * * * * * //

dimensions      [0 1 -1 0 0 0 0];

internalField   nonuniform List<vector> 
1500
(
(0 6.56972e-08 0)
(0 1.52156e-07 0)
(0 2.32265e-07 0)
(0 3.08585e-07 0)
(0 3.83349e-07 0)
(0 4.57101e-07 0)
(0 5.30133e-07 0)
(0 6.02626e-07 0)
(0 6.74697e-07 0)
(0 7.46431e-07 0)
(0 8.17888e-07 0)
(0 8.89113e-07 0)
(0 9.60142e-07 0)
(0 1.031e-06 0)
(0 1.10171e-06 0)
(0 1.1723e-06 0)
(0 1.24277e-06 0)
(0 1.31313e-06 0)
(0 1.38341e-06 0)
(0 1.4536e-06 0)
(0 1.52372e-06 0)
(0 1.59377e-06 0)
(0 1.66376e-06 0)
(0 1.7337e-06 0)
(0 1.80358e-06 0)
(0 1.87341e-06 0)
(0 1.94319e-06 0)
(0 2.01294e-06 0)
(0 2.08264e-06 0)
(0 2.15231e-06 0)
(0 2.22194e-06 0)
(0 2.29154e-06 0)
(0 2.36111e-06 0)
(0 2.43066e-06 0)
(0 2.50017e-06 0)
(0 2.56966e-06 0)
(0 2.63913e-06 0)
(0 2.70857e-06 0)
(0 2.77799e-06 0)
(0 2.84739e-06 0)
(0 2.91677e-06 0)
(0 2.98614e-06 0)
(0 3.05548e-06 0)
(0 3.12481e-06 0)
(0 3.19412e-06 0)
(0 3.26341e-06 0)
(0 3.33269e-06 0)
(0 3.40196e-06 0)
(0 3.47121e-06 0)
(0 3.54045e-06 0)
(0 3.60968e-06 0)
(0 3.67889e-06 0)
(0 3.7481e-06 0)
(0 3.81729e-06 0)
(0 3.88647e-06 0)
(0 3.95564e-06 0)
(0 4.0248e-06 0)
(0 4.09395e-06 0)
(0 4.16309e-06 0)
(0 4.23222e-06 0)
(0 4.30134e-06 0)
(0 4.37045e-06 0)
(0 4.43956e-06 0)
(0 4.50866e-06 0)
(0 4.57775e-06 0)
(0 4.64683e-06 0)
(0 4.7159e-06 0)
(0 4.78497e-06 0)
(0 4.85403e-06 0)
(0 4.92308e-06 0)
(0 4.99213e-06 0)
(0 5.06117e-06 0)
(0 5.13021e-06 0)
(0 5.19923e-06 0)
(0 5.26826e-06 0)
(0 5.33727e-06 0)
(0 5.40629e-06 0)
(0 5.47529e-06 0)
(0 5.54429e-06 0)
(0 5.61329e-06 0)
(0 5.68228e-06 0)
(0 5.75126e-06 0)
(0 5.82024e-06 0)
(0 5.88922e-06 0)
(0 5.95819e-06 0)
(0 6.02716e-06 0)
(0 6.09612e-06 0)
(0 6.16508e-06 0)
(0 6.23404e-06 0)
(0 6.30299e-06 0)
(0 6.37193e-06 0)
(0 6.44088e-06 0)
(0 6.50981e-06 0)
(0 6.57875e-06 0)
(0 6.64768e-06 0)
(0 6.71661e-06 0)
(0 6.78553e-06 0)
(0 6.85445e-06 0)
(0 6.92337e-06 0)
(0 6.99229e-06 0)
(0 7.0612e-06 0)
(0 7.13011e-06 0)
(0 7.19901e-06 0)
(0 7.26791e-06 0)
(0 7.33681e-06 0)
(0 7.40571e-06 0)
(0 7.4746e-06 0)
(0 7.54349e-06 0)
(0 7.61238e-06 0)
(0 7.68127e-06 0)
(0 7.75015e-06 0)
(0 7.81903e-06 0)
(0 7.88791e-06 0)
(0 7.95678e-06 0)
(0 8.02566e-06 0)
(0 8.09453e-06 0)
(0 8.1634e-06 0)
(0 8.23226e-06 0)
(0 8.30112e-06 0)
(0 8.36999e-06 0)
(0 8.43884e-06 0)
(0 8.5077e-06 0)
(0 8.57656e-06 0)
(0 8.64541e-06 0)
(0 8.71426e-06 0)
(0 8.78311e-06 0)
(0 8.85196e-06 0)
(0 8.9208e-06 0)
(0 8.98964e-06 0)
(0 9.05848e-06 0)
(0 9.12732e-06 0)
(0 9.19616e-06 0)
(0 9.265e-06 0)
(0 9.33383e-06 0)
(0 9.40266e-06 0)
(0 9.47149e-06 0)
(0 9.54032e-06 0)
(0 9.60915e-06 0)
(0 9.67797e-06 0)
(0 9.7468e-06 0)
(0 9.81562e-06 0)
(0 9.88444e-06 0)
(0 9.95326e-06 0)
(0 1.00221e-05 0)
(0 1.00909e-05 0)
(0 1.01597e-05 0)
(0 1.02285e-05 0)
(0 1.02973e-05 0)
(0 1.03661e-05 0)
(0 1.0435e-05 0)
(0 1.05038e-05 0)
(0 1.05726e-05 0)
(0 1.06414e-05 0)
(0 1.07102e-05 0)
(0 1.0779e-05 0)
(0 1.08478e-05 0)
(0 1.09166e-05 0)
(0 1.09854e-05 0)
(0 1.10542e-05 0)
(0 1.1123e-05 0)
(0 1.11918e-05 0)
(0 1.12606e-05 0)
(0 1.13294e-05 0)
(0 1.13982e-05 0)
(0 1.14669e-05 0)
(0 1.15357e-05 0)
(0 1.16045e-05 0)
(0 1.16733e-05 0)
(0 1.17421e-05 0)
(0 1.18109e-05 0)
(0 1.18797e-05 0)
(0 1.19485e-05 0)
(0 1.20172e-05 0)
(0 1.2086e-05 0)
(0 1.21548e-05 0)
(0 1.22236e-05 0)
(0 1.22924e-05 0)
(0 1.23611e-05 0)
(0 1.24299e-05 0)
(0 1.24987e-05 0)
(0 1.25675e-05 0)
(0 1.26362e-05 0)
(0 1.2705e-05 0)
(0 1.27738e-05 0)
(0 1.28426e-05 0)
(0 1.29113e-05 0)
(0 1.29801e-05 0)
(0 1.30489e-05 0)
(0 1.31176e-05 0)
(0 1.31864e-05 0)
(0 1.32552e-05 0)
(0 1.33239e-05 0)
(0 1.33927e-05 0)
(0 1.34615e-05 0)
(0 1.35302e-05 0)
(0 1.3599e-05 0)
(0 1.36678e-05 0)
(0 1.37365e-05 0)
(0 1.38053e-05 0)
(0 1.3874e-05 0)
(0 1.39428e-05 0)
(0 1.40116e-05 0)
(0 1.40803e-05 0)
(0 1.41491e-05 0)
(0 1.42178e-05 0)
(0 1.42866e-05 0)
(0 1.43554e-05 0)
(0 1.44241e-05 0)
(0 1.44929e-05 0)
(0 1.45616e-05 0)
(0 1.46304e-05 0)
(0 1.46991e-05 0)
(0 1.47679e-05 0)
(0 1.48366e-05 0)
(0 1.49054e-05 0)
(0 1.49741e-05 0)
(0 1.50429e-05 0)
(0 1.51116e-05 0)
(0 1.51804e-05 0)
(0 1.52491e-05 0)
(0 1.53179e-05 0)
(0 1.53866e-05 0)
(0 1.54554e-05 0)
(0 1.55241e-05 0)
(0 1.55929e-05 0)
(0 1.56616e-05 0)
(0 1.57304e-05 0)
(0 1.57991e-05 0)
(0 1.58679e-05 0)
(0 1.59366e-05 0)
(0 1.60053e-05 0)
(0 1.60741e-05 0)
(0 1.61428e-05 0)
(0 1.62116e-05 0)
(0 1.62803e-05 0)
(0 1.63491e-05 0)
(0 1.64178e-05 0)
(0 1.64865e-05 0)
(0 1.65553e-05 0)
(0 1.6624e-05 0)
(0 1.66927e-05 0)
(0 1.67614e-05 0)
(0 1.68255e-05 0)
(0 1.67039e-05 0)
(0 1.15387e-05 0)
(0 1.68531e-06 0)
(0 8.89795e-07 0)
(0 7.03281e-07 0)
(0 6.2025e-07 0)
(0 5.73272e-07 0)
(0 5.43041e-07 0)
(0 5.21949e-07 0)
(0 5.06388e-07 0)
(0 4.94429e-07 0)
(0 4.84948e-07 0)
(0 4.77243e-07 0)
(0 4.70855e-07 0)
(0 4.65469e-07 0)
(0 4.60864e-07 0)
(0 4.56881e-07 0)
(0 4.53398e-07 0)
(0 4.50325e-07 0)
(0 4.47592e-07 0)
(0 4.45143e-07 0)
(0 4.42936e-07 0)
(0 4.40935e-07 0)
(0 4.3911e-07 0)
(0 4.37437e-07 0)
(0 4.35898e-07 0)
(0 4.34475e-07 0)
(0 4.33154e-07 0)
(0 4.31924e-07 0)
(0 4.30775e-07 0)
(0 4.29697e-07 0)
(0 4.28684e-07 0)
(0 4.27728e-07 0)
(0 4.26824e-07 0)
(0 4.25967e-07 0)
(0 4.25152e-07 0)
(0 4.24375e-07 0)
(0 4.23634e-07 0)
(0 4.22924e-07 0)
(0 4.22243e-07 0)
(0 4.21589e-07 0)
(0 4.20959e-07 0)
(0 4.20352e-07 0)
(0 4.19764e-07 0)
(0 4.19196e-07 0)
(0 4.18645e-07 0)
(0 4.18109e-07 0)
(0 4.17588e-07 0)
(0 4.1708e-07 0)
(0 4.16584e-07 0)
(0 4.161e-07 0)
(0 4.15626e-07 0)
(0 4.15161e-07 0)
(0 4.14705e-07 0)
(0 4.14257e-07 0)
(0 4.13818e-07 0)
(0 4.13384e-07 0)
(0 4.12957e-07 0)
(0 4.12535e-07 0)
(0 4.12118e-07 0)
(0 4.11707e-07 0)
(0 4.113e-07 0)
(0 4.10897e-07 0)
(0 4.10497e-07 0)
(0 4.101e-07 0)
(0 4.09707e-07 0)
(0 4.09315e-07 0)
(0 4.08926e-07 0)
(0 4.08538e-07 0)
(0 4.08152e-07 0)
(0 4.07767e-07 0)
(0 4.07384e-07 0)
(0 4.07002e-07 0)
(0 4.06621e-07 0)
(0 4.0624e-07 0)
(0 4.0586e-07 0)
(0 4.05479e-07 0)
(0 4.05099e-07 0)
(0 4.04719e-07 0)
(0 4.04338e-07 0)
(0 4.03957e-07 0)
(0 4.03575e-07 0)
(0 4.03193e-07 0)
(0 4.02809e-07 0)
(0 4.02424e-07 0)
(0 4.02038e-07 0)
(0 4.01651e-07 0)
(0 4.01263e-07 0)
(0 4.00873e-07 0)
(0 4.00483e-07 0)
(0 4.0009e-07 0)
(0 3.99695e-07 0)
(0 3.99298e-07 0)
(0 3.98899e-07 0)
(0 3.98498e-07 0)
(0 3.98094e-07 0)
(0 3.97688e-07 0)
(0 3.97281e-07 0)
(0 3.96871e-07 0)
(0 3.96458e-07 0)
(0 3.96043e-07 0)
(0 3.95626e-07 0)
(0 3.95207e-07 0)
(0 3.94784e-07 0)
(0 3.94359e-07 0)
(0 3.93931e-07 0)
(0 3.935e-07 0)
(0 3.93067e-07 0)
(0 3.9263e-07 0)
(0 3.92191e-07 0)
(0 3.91749e-07 0)
(0 3.91304e-07 0)
(0 3.90854e-07 0)
(0 3.90402e-07 0)
(0 3.89945e-07 0)
(0 3.89487e-07 0)
(0 3.89024e-07 0)
(0 3.88558e-07 0)
(0 3.8809e-07 0)
(0 3.87618e-07 0)
(0 3.87141e-07 0)
(0 3.86661e-07 0)
(0 3.86178e-07 0)
(0 3.85693e-07 0)
(0 3.85203e-07 0)
(0 3.84709e-07 0)
(0 3.84212e-07 0)
(0 3.83712e-07 0)
(0 3.83208e-07 0)
(0 3.827e-07 0)
(0 3.82187e-07 0)
(0 3.81671e-07 0)
(0 3.8115e-07 0)
(0 3.80625e-07 0)
(0 3.80097e-07 0)
(0 3.79566e-07 0)
(0 3.7903e-07 0)
(0 3.78489e-07 0)
(0 3.77945e-07 0)
(0 3.77397e-07 0)
(0 3.76844e-07 0)
(0 3.76288e-07 0)
(0 3.75728e-07 0)
(0 3.75163e-07 0)
(0 3.74593e-07 0)
(0 3.7402e-07 0)
(0 3.73443e-07 0)
(0 3.72862e-07 0)
(0 3.72276e-07 0)
(0 3.71686e-07 0)
(0 3.71092e-07 0)
(0 3.70494e-07 0)
(0 3.69891e-07 0)
(0 3.69284e-07 0)
(0 3.68672e-07 0)
(0 3.68056e-07 0)
(0 3.67436e-07 0)
(0 3.66813e-07 0)
(0 3.66185e-07 0)
(0 3.65553e-07 0)
(0 3.64915e-07 0)
(0 3.64273e-07 0)
(0 3.63626e-07 0)
(0 3.62975e-07 0)
(0 3.62321e-07 0)
(0 3.61663e-07 0)
(0 3.60998e-07 0)
(0 3.60329e-07 0)
(0 3.59656e-07 0)
(0 3.58978e-07 0)
(0 3.58296e-07 0)
(0 3.5761e-07 0)
(0 3.56918e-07 0)
(0 3.56221e-07 0)
(0 3.5552e-07 0)
(0 3.54815e-07 0)
(0 3.54105e-07 0)
(0 3.53391e-07 0)
(0 3.52673e-07 0)
(0 3.51951e-07 0)
(0 3.51223e-07 0)
(0 3.5049e-07 0)
(0 3.49753e-07 0)
(0 3.49011e-07 0)
(0 3.48264e-07 0)
(0 3.47514e-07 0)
(0 3.46759e-07 0)
(0 3.45998e-07 0)
(0 3.45233e-07 0)
(0 3.44463e-07 0)
(0 3.43688e-07 0)
(0 3.42909e-07 0)
(0 3.42125e-07 0)
(0 3.41337e-07 0)
(0 3.40542e-07 0)
(0 3.39743e-07 0)
(0 3.3894e-07 0)
(0 3.38132e-07 0)
(0 3.3732e-07 0)
(0 3.36503e-07 0)
(0 3.35681e-07 0)
(0 3.34854e-07 0)
(0 3.34024e-07 0)
(0 3.33187e-07 0)
(0 3.32347e-07 0)
(0 3.31502e-07 0)
(0 3.30651e-07 0)
(0 3.29796e-07 0)
(0 3.28936e-07 0)
(0 3.28072e-07 0)
(0 3.27204e-07 0)
(0 3.2633e-07 0)
(0 3.25452e-07 0)
(0 3.24569e-07 0)
(0 3.23681e-07 0)
(0 3.22787e-07 0)
(0 3.2189e-07 0)
(0 3.20988e-07 0)
(0 3.20082e-07 0)
(0 3.19171e-07 0)
(0 3.18255e-07 0)
(0 3.17334e-07 0)
(0 3.1641e-07 0)
(0 3.1548e-07 0)
(0 3.14545e-07 0)
(0 3.13605e-07 0)
(0 3.1266e-07 0)
(0 3.1171e-07 0)
(0 3.10757e-07 0)
(0 3.09801e-07 0)
(0 3.08838e-07 0)
(0 3.07869e-07 0)
(0 3.06897e-07 0)
(0 3.05921e-07 0)
(0 3.0494e-07 0)
(0 3.03953e-07 0)
(0 3.02962e-07 0)
(0 3.01967e-07 0)
(0 3.00969e-07 0)
(0 2.99965e-07 0)
(0 2.98955e-07 0)
(0 2.97941e-07 0)
(0 2.96922e-07 0)
(0 2.95899e-07 0)
(0 2.94871e-07 0)
(0 2.9384e-07 0)
(0 2.92803e-07 0)
(0 2.91761e-07 0)
(0 2.90714e-07 0)
(0 2.89664e-07 0)
(0 2.88609e-07 0)
(0 2.8755e-07 0)
(0 2.86487e-07 0)
(0 2.85419e-07 0)
(0 2.84347e-07 0)
(0 2.8327e-07 0)
(0 2.82188e-07 0)
(0 2.81102e-07 0)
(0 2.80012e-07 0)
(0 2.78917e-07 0)
(0 2.77818e-07 0)
(0 2.76713e-07 0)
(0 2.75604e-07 0)
(0 2.74492e-07 0)
(0 2.73375e-07 0)
(0 2.72254e-07 0)
(0 2.71129e-07 0)
(0 2.7e-07 0)
(0 2.68866e-07 0)
(0 2.67728e-07 0)
(0 2.66584e-07 0)
(0 2.65436e-07 0)
(0 2.64285e-07 0)
(0 2.63127e-07 0)
(0 2.61968e-07 0)
(0 2.60806e-07 0)
(0 2.59638e-07 0)
(0 2.58466e-07 0)
(0 2.5729e-07 0)
(0 2.5611e-07 0)
(0 2.54924e-07 0)
(0 2.53734e-07 0)
(0 2.52542e-07 0)
(0 2.51346e-07 0)
(0 2.50144e-07 0)
(0 2.48939e-07 0)
(0 2.4773e-07 0)
(0 2.46517e-07 0)
(0 2.453e-07 0)
(0 2.44079e-07 0)
(0 2.42854e-07 0)
(0 2.41626e-07 0)
(0 2.40393e-07 0)
(0 2.39156e-07 0)
(0 2.37915e-07 0)
(0 2.36671e-07 0)
(0 2.35424e-07 0)
(0 2.34171e-07 0)
(0 2.32915e-07 0)
(0 2.31655e-07 0)
(0 2.3039e-07 0)
(0 2.29124e-07 0)
(0 2.27854e-07 0)
(0 2.26581e-07 0)
(0 2.25303e-07 0)
(0 2.2402e-07 0)
(0 2.22734e-07 0)
(0 2.21443e-07 0)
(0 2.20149e-07 0)
(0 2.18852e-07 0)
(0 2.17551e-07 0)
(0 2.16247e-07 0)
(0 2.1494e-07 0)
(0 2.13629e-07 0)
(0 2.12315e-07 0)
(0 2.10998e-07 0)
(0 2.09677e-07 0)
(0 2.08352e-07 0)
(0 2.07023e-07 0)
(0 2.0569e-07 0)
(0 2.04355e-07 0)
(0 2.03018e-07 0)
(0 2.01677e-07 0)
(0 2.00332e-07 0)
(0 1.98983e-07 0)
(0 1.97632e-07 0)
(0 1.96277e-07 0)
(0 1.94919e-07 0)
(0 1.93558e-07 0)
(0 1.92193e-07 0)
(0 1.90827e-07 0)
(0 1.89458e-07 0)
(0 1.88085e-07 0)
(0 1.8671e-07 0)
(0 1.85331e-07 0)
(0 1.83949e-07 0)
(0 1.82563e-07 0)
(0 1.81176e-07 0)
(0 1.79786e-07 0)
(0 1.78393e-07 0)
(0 1.76996e-07 0)
(0 1.75595e-07 0)
(0 1.74193e-07 0)
(0 1.72787e-07 0)
(0 1.71377e-07 0)
(0 1.69966e-07 0)
(0 1.68553e-07 0)
(0 1.67137e-07 0)
(0 1.65718e-07 0)
(0 1.64296e-07 0)
(0 1.62872e-07 0)
(0 1.61445e-07 0)
(0 1.60017e-07 0)
(0 1.58585e-07 0)
(0 1.57151e-07 0)
(0 1.55713e-07 0)
(0 1.54273e-07 0)
(0 1.52832e-07 0)
(0 1.51387e-07 0)
(0 1.49941e-07 0)
(0 1.48493e-07 0)
(0 1.47042e-07 0)
(0 1.45589e-07 0)
(0 1.44135e-07 0)
(0 1.42678e-07 0)
(0 1.41219e-07 0)
(0 1.39758e-07 0)
(0 1.38294e-07 0)
(0 1.36829e-07 0)
(0 1.35362e-07 0)
(0 1.33891e-07 0)
(0 1.3242e-07 0)
(0 1.30947e-07 0)
(0 1.29471e-07 0)
(0 1.27993e-07 0)
(0 1.26515e-07 0)
(0 1.25035e-07 0)
(0 1.23552e-07 0)
(0 1.22066e-07 0)
(0 1.20579e-07 0)
(0 1.19091e-07 0)
(0 1.17603e-07 0)
(0 1.16112e-07 0)
(0 1.14619e-07 0)
(0 1.13124e-07 0)
(0 1.11627e-07 0)
(0 1.10129e-07 0)
(0 1.0863e-07 0)
(0 1.0713e-07 0)
(0 1.05627e-07 0)
(0 1.04125e-07 0)
(0 1.02621e-07 0)
(0 1.01114e-07 0)
(0 9.96063e-08 0)
(0 9.80976e-08 0)
(0 9.65884e-08 0)
(0 9.50772e-08 0)
(0 9.35663e-08 0)
(0 9.20537e-08 0)
(0 9.05389e-08 0)
(0 8.90231e-08 0)
(0 8.75059e-08 0)
(0 8.59883e-08 0)
(0 8.44697e-08 0)
(0 8.295e-08 0)
(0 8.14296e-08 0)
(0 7.99086e-08 0)
(0 7.83855e-08 0)
(0 7.68619e-08 0)
(0 7.53388e-08 0)
(0 7.3815e-08 0)
(0 7.22908e-08 0)
(0 7.0764e-08 0)
(0 6.92372e-08 0)
(0 6.77105e-08 0)
(0 6.61832e-08 0)
(0 6.46559e-08 0)
(0 6.31269e-08 0)
(0 6.15974e-08 0)
(0 6.00689e-08 0)
(0 5.85407e-08 0)
(0 5.70105e-08 0)
(0 5.54796e-08 0)
(0 5.39486e-08 0)
(0 5.24176e-08 0)
(0 5.08879e-08 0)
(0 4.9356e-08 0)
(0 4.78218e-08 0)
(0 4.62897e-08 0)
(0 4.47586e-08 0)
(0 4.32271e-08 0)
(0 4.16958e-08 0)
(0 4.01641e-08 0)
(0 3.86328e-08 0)
(0 3.71022e-08 0)
(0 3.55711e-08 0)
(0 3.40391e-08 0)
(0 3.25072e-08 0)
(0 3.09756e-08 0)
(0 2.94462e-08 0)
(0 2.7916e-08 0)
(0 2.63844e-08 0)
(0 2.48541e-08 0)
(0 2.33245e-08 0)
(0 2.17959e-08 0)
(0 2.02677e-08 0)
(0 1.87392e-08 0)
(0 1.72125e-08 0)
(0 1.56862e-08 0)
(0 1.4159e-08 0)
(0 1.26334e-08 0)
(0 1.11092e-08 0)
(0 9.58439e-09 0)
(0 8.05946e-09 0)
(0 6.53708e-09 0)
(0 5.01645e-09 0)
(0 3.49665e-09 0)
(0 1.97764e-09 0)
(0 4.57946e-10 0)
(0 -1.06101e-09 0)
(0 -2.57816e-09 0)
(0 -4.09396e-09 0)
(0 -5.60827e-09 0)
(0 -7.12095e-09 0)
(0 -8.63282e-09 0)
(0 -1.01444e-08 0)
(0 -1.1655e-08 0)
(0 -1.31646e-08 0)
(0 -1.46725e-08 0)
(0 -1.61791e-08 0)
(0 -1.76844e-08 0)
(0 -1.91878e-08 0)
(0 -2.06902e-08 0)
(0 -2.21918e-08 0)
(0 -2.36907e-08 0)
(0 -2.51886e-08 0)
(0 -2.66849e-08 0)
(0 -2.81794e-08 0)
(0 -2.96721e-08 0)
(0 -3.11626e-08 0)
(0 -3.26521e-08 0)
(0 -3.41395e-08 0)
(0 -3.56259e-08 0)
(0 -3.71109e-08 0)
(0 -3.85936e-08 0)
(0 -4.00744e-08 0)
(0 -4.15542e-08 0)
(0 -4.30314e-08 0)
(0 -4.4506e-08 0)
(0 -4.59789e-08 0)
(0 -4.74508e-08 0)
(0 -4.8921e-08 0)
(0 -5.03876e-08 0)
(0 -5.18513e-08 0)
(0 -5.33132e-08 0)
(0 -5.47748e-08 0)
(0 -5.62347e-08 0)
(0 -5.76903e-08 0)
(0 -5.91436e-08 0)
(0 -6.05943e-08 0)
(0 -6.20433e-08 0)
(0 -6.34912e-08 0)
(0 -6.49357e-08 0)
(0 -6.63765e-08 0)
(0 -6.78146e-08 0)
(0 -6.92518e-08 0)
(0 -7.06869e-08 0)
(0 -7.21186e-08 0)
(0 -7.35476e-08 0)
(0 -7.49745e-08 0)
(0 -7.63994e-08 0)
(0 -7.78212e-08 0)
(0 -7.92394e-08 0)
(0 -8.06544e-08 0)
(0 -8.20653e-08 0)
(0 -8.34756e-08 0)
(0 -8.48839e-08 0)
(0 -8.62873e-08 0)
(0 -8.76883e-08 0)
(0 -8.90858e-08 0)
(0 -9.04807e-08 0)
(0 -9.18726e-08 0)
(0 -9.32602e-08 0)
(0 -9.46462e-08 0)
(0 -9.60291e-08 0)
(0 -9.74078e-08 0)
(0 -9.87833e-08 0)
(0 -1.00156e-07 0)
(0 -1.01528e-07 0)
(0 -1.02895e-07 0)
(0 -1.04258e-07 0)
(0 -1.05617e-07 0)
(0 -1.06973e-07 0)
(0 -1.08326e-07 0)
(0 -1.09676e-07 0)
(0 -1.11021e-07 0)
(0 -1.12363e-07 0)
(0 -1.13701e-07 0)
(0 -1.15037e-07 0)
(0 -1.16368e-07 0)
(0 -1.17694e-07 0)
(0 -1.19018e-07 0)
(0 -1.20338e-07 0)
(0 -1.21656e-07 0)
(0 -1.2297e-07 0)
(0 -1.24279e-07 0)
(0 -1.25584e-07 0)
(0 -1.26886e-07 0)
(0 -1.28184e-07 0)
(0 -1.29479e-07 0)
(0 -1.30769e-07 0)
(0 -1.32056e-07 0)
(0 -1.33338e-07 0)
(0 -1.34618e-07 0)
(0 -1.35892e-07 0)
(0 -1.37163e-07 0)
(0 -1.3843e-07 0)
(0 -1.39691e-07 0)
(0 -1.40949e-07 0)
(0 -1.42203e-07 0)
(0 -1.43452e-07 0)
(0 -1.44697e-07 0)
(0 -1.45938e-07 0)
(0 -1.47175e-07 0)
(0 -1.48407e-07 0)
(0 -1.49636e-07 0)
(0 -1.50859e-07 0)
(0 -1.52079e-07 0)
(0 -1.53294e-07 0)
(0 -1.54505e-07 0)
(0 -1.55713e-07 0)
(0 -1.56914e-07 0)
(0 -1.58111e-07 0)
(0 -1.59304e-07 0)
(0 -1.60493e-07 0)
(0 -1.61676e-07 0)
(0 -1.62854e-07 0)
(0 -1.64029e-07 0)
(0 -1.65199e-07 0)
(0 -1.66366e-07 0)
(0 -1.67526e-07 0)
(0 -1.68681e-07 0)
(0 -1.69832e-07 0)
(0 -1.70977e-07 0)
(0 -1.72117e-07 0)
(0 -1.73254e-07 0)
(0 -1.74385e-07 0)
(0 -1.75512e-07 0)
(0 -1.76635e-07 0)
(0 -1.77751e-07 0)
(0 -1.78862e-07 0)
(0 -1.79969e-07 0)
(0 -1.8107e-07 0)
(0 -1.82166e-07 0)
(0 -1.83257e-07 0)
(0 -1.84344e-07 0)
(0 -1.85427e-07 0)
(0 -1.86503e-07 0)
(0 -1.87573e-07 0)
(0 -1.88638e-07 0)
(0 -1.89698e-07 0)
(0 -1.90752e-07 0)
(0 -1.91803e-07 0)
(0 -1.92848e-07 0)
(0 -1.93886e-07 0)
(0 -1.94921e-07 0)
(0 -1.95949e-07 0)
(0 -1.96973e-07 0)
(0 -1.97992e-07 0)
(0 -1.99005e-07 0)
(0 -2.00014e-07 0)
(0 -2.01016e-07 0)
(0 -2.02012e-07 0)
(0 -2.03004e-07 0)
(0 -2.0399e-07 0)
(0 -2.04969e-07 0)
(0 -2.05941e-07 0)
(0 -2.0691e-07 0)
(0 -2.07873e-07 0)
(0 -2.0883e-07 0)
(0 -2.09782e-07 0)
(0 -2.10728e-07 0)
(0 -2.11668e-07 0)
(0 -2.12603e-07 0)
(0 -2.13531e-07 0)
(0 -2.14454e-07 0)
(0 -2.15372e-07 0)
(0 -2.16284e-07 0)
(0 -2.1719e-07 0)
(0 -2.18091e-07 0)
(0 -2.18985e-07 0)
(0 -2.19876e-07 0)
(0 -2.2076e-07 0)
(0 -2.21637e-07 0)
(0 -2.22508e-07 0)
(0 -2.23373e-07 0)
(0 -2.24232e-07 0)
(0 -2.25085e-07 0)
(0 -2.25931e-07 0)
(0 -2.26771e-07 0)
(0 -2.27606e-07 0)
(0 -2.28437e-07 0)
(0 -2.29262e-07 0)
(0 -2.30081e-07 0)
(0 -2.30892e-07 0)
(0 -2.31697e-07 0)
(0 -2.32497e-07 0)
(0 -2.33291e-07 0)
(0 -2.34077e-07 0)
(0 -2.34857e-07 0)
(0 -2.3563e-07 0)
(0 -2.36399e-07 0)
(0 -2.37163e-07 0)
(0 -2.37921e-07 0)
(0 -2.38671e-07 0)
(0 -2.39415e-07 0)
(0 -2.40152e-07 0)
(0 -2.40884e-07 0)
(0 -2.4161e-07 0)
(0 -2.4233e-07 0)
(0 -2.43043e-07 0)
(0 -2.4375e-07 0)
(0 -2.4445e-07 0)
(0 -2.45143e-07 0)
(0 -2.4583e-07 0)
(0 -2.46512e-07 0)
(0 -2.47187e-07 0)
(0 -2.47855e-07 0)
(0 -2.48516e-07 0)
(0 -2.49171e-07 0)
(0 -2.4982e-07 0)
(0 -2.50461e-07 0)
(0 -2.51096e-07 0)
(0 -2.51726e-07 0)
(0 -2.5235e-07 0)
(0 -2.52966e-07 0)
(0 -2.53576e-07 0)
(0 -2.54181e-07 0)
(0 -2.5478e-07 0)
(0 -2.5537e-07 0)
(0 -2.55954e-07 0)
(0 -2.56534e-07 0)
(0 -2.57104e-07 0)
(0 -2.57668e-07 0)
(0 -2.58225e-07 0)
(0 -2.58777e-07 0)
(0 -2.5932e-07 0)
(0 -2.59857e-07 0)
(0 -2.60391e-07 0)
(0 -2.60917e-07 0)
(0 -2.61435e-07 0)
(0 -2.61946e-07 0)
(0 -2.62451e-07 0)
(0 -2.6295e-07 0)
(0 -2.63441e-07 0)
(0 -2.63925e-07 0)
(0 -2.64404e-07 0)
(0 -2.64875e-07 0)
(0 -2.65338e-07 0)
(0 -2.65796e-07 0)
(0 -2.66249e-07 0)
(0 -2.66693e-07 0)
(0 -2.67129e-07 0)
(0 -2.67561e-07 0)
(0 -2.67988e-07 0)
(0 -2.68405e-07 0)
(0 -2.68816e-07 0)
(0 -2.69221e-07 0)
(0 -2.69619e-07 0)
(0 -2.70011e-07 0)
(0 -2.70397e-07 0)
(0 -2.70775e-07 0)
(0 -2.71147e-07 0)
(0 -2.71512e-07 0)
(0 -2.7187e-07 0)
(0 -2.72222e-07 0)
(0 -2.72567e-07 0)
(0 -2.72904e-07 0)
(0 -2.73236e-07 0)
(0 -2.73561e-07 0)
(0 -2.73878e-07 0)
(0 -2.74188e-07 0)
(0 -2.74492e-07 0)
(0 -2.74791e-07 0)
(0 -2.75083e-07 0)
(0 -2.75366e-07 0)
(0 -2.75643e-07 0)
(0 -2.75913e-07 0)
(0 -2.76176e-07 0)
(0 -2.76434e-07 0)
(0 -2.76685e-07 0)
(0 -2.76927e-07 0)
(0 -2.77163e-07 0)
(0 -2.77392e-07 0)
(0 -2.77613e-07 0)
(0 -2.77829e-07 0)
(0 -2.78039e-07 0)
(0 -2.7824e-07 0)
(0 -2.78437e-07 0)
(0 -2.78626e-07 0)
(0 -2.78808e-07 0)
(0 -2.78985e-07 0)
(0 -2.79154e-07 0)
(0 -2.79319e-07 0)
(0 -2.79473e-07 0)
(0 -2.7962e-07 0)
(0 -2.7976e-07 0)
(0 -2.79893e-07 0)
(0 -2.80021e-07 0)
(0 -2.80142e-07 0)
(0 -2.80258e-07 0)
(0 -2.80366e-07 0)
(0 -2.80466e-07 0)
(0 -2.8056e-07 0)
(0 -2.80647e-07 0)
(0 -2.80724e-07 0)
(0 -2.80797e-07 0)
(0 -2.80866e-07 0)
(0 -2.80925e-07 0)
(0 -2.80977e-07 0)
(0 -2.81022e-07 0)
(0 -2.8106e-07 0)
(0 -2.81092e-07 0)
(0 -2.81117e-07 0)
(0 -2.81135e-07 0)
(0 -2.81146e-07 0)
(0 -2.81151e-07 0)
(0 -2.8115e-07 0)
(0 -2.81143e-07 0)
(0 -2.81129e-07 0)
(0 -2.81107e-07 0)
(0 -2.81078e-07 0)
(0 -2.81042e-07 0)
(0 -2.80999e-07 0)
(0 -2.8095e-07 0)
(0 -2.80894e-07 0)
(0 -2.80832e-07 0)
(0 -2.80763e-07 0)
(0 -2.80685e-07 0)
(0 -2.80602e-07 0)
(0 -2.80513e-07 0)
(0 -2.80418e-07 0)
(0 -2.80317e-07 0)
(0 -2.80208e-07 0)
(0 -2.80093e-07 0)
(0 -2.79972e-07 0)
(0 -2.79844e-07 0)
(0 -2.79708e-07 0)
(0 -2.79565e-07 0)
(0 -2.79416e-07 0)
(0 -2.79261e-07 0)
(0 -2.79101e-07 0)
(0 -2.78934e-07 0)
(0 -2.7876e-07 0)
(0 -2.78579e-07 0)
(0 -2.78392e-07 0)
(0 -2.78198e-07 0)
(0 -2.77995e-07 0)
(0 -2.77788e-07 0)
(0 -2.77578e-07 0)
(0 -2.77359e-07 0)
(0 -2.77131e-07 0)
(0 -2.76896e-07 0)
(0 -2.76658e-07 0)
(0 -2.76413e-07 0)
(0 -2.7616e-07 0)
(0 -2.75902e-07 0)
(0 -2.75637e-07 0)
(0 -2.75364e-07 0)
(0 -2.75085e-07 0)
(0 -2.74803e-07 0)
(0 -2.74512e-07 0)
(0 -2.74214e-07 0)
(0 -2.7391e-07 0)
(0 -2.736e-07 0)
(0 -2.73285e-07 0)
(0 -2.72962e-07 0)
(0 -2.72632e-07 0)
(0 -2.72297e-07 0)
(0 -2.71955e-07 0)
(0 -2.71607e-07 0)
(0 -2.71255e-07 0)
(0 -2.70895e-07 0)
(0 -2.70526e-07 0)
(0 -2.70152e-07 0)
(0 -2.69772e-07 0)
(0 -2.69387e-07 0)
(0 -2.68995e-07 0)
(0 -2.68597e-07 0)
(0 -2.68196e-07 0)
(0 -2.67788e-07 0)
(0 -2.67373e-07 0)
(0 -2.66951e-07 0)
(0 -2.66522e-07 0)
(0 -2.66088e-07 0)
(0 -2.65646e-07 0)
(0 -2.65199e-07 0)
(0 -2.64748e-07 0)
(0 -2.64292e-07 0)
(0 -2.63829e-07 0)
(0 -2.63359e-07 0)
(0 -2.62883e-07 0)
(0 -2.624e-07 0)
(0 -2.61911e-07 0)
(0 -2.61418e-07 0)
(0 -2.60921e-07 0)
(0 -2.60416e-07 0)
(0 -2.59906e-07 0)
(0 -2.59389e-07 0)
(0 -2.58868e-07 0)
(0 -2.58341e-07 0)
(0 -2.57806e-07 0)
(0 -2.57265e-07 0)
(0 -2.5672e-07 0)
(0 -2.56169e-07 0)
(0 -2.55613e-07 0)
(0 -2.55052e-07 0)
(0 -2.54484e-07 0)
(0 -2.53909e-07 0)
(0 -2.53328e-07 0)
(0 -2.52742e-07 0)
(0 -2.5215e-07 0)
(0 -2.51555e-07 0)
(0 -2.50955e-07 0)
(0 -2.50348e-07 0)
(0 -2.49735e-07 0)
(0 -2.49119e-07 0)
(0 -2.48497e-07 0)
(0 -2.47868e-07 0)
(0 -2.47233e-07 0)
(0 -2.46593e-07 0)
(0 -2.45949e-07 0)
(0 -2.45299e-07 0)
(0 -2.44645e-07 0)
(0 -2.43985e-07 0)
(0 -2.4332e-07 0)
(0 -2.42649e-07 0)
(0 -2.41974e-07 0)
(0 -2.41294e-07 0)
(0 -2.40608e-07 0)
(0 -2.39915e-07 0)
(0 -2.39219e-07 0)
(0 -2.38519e-07 0)
(0 -2.37812e-07 0)
(0 -2.37101e-07 0)
(0 -2.36386e-07 0)
(0 -2.35666e-07 0)
(0 -2.34941e-07 0)
(0 -2.34211e-07 0)
(0 -2.33475e-07 0)
(0 -2.32732e-07 0)
(0 -2.31986e-07 0)
(0 -2.31235e-07 0)
(0 -2.30479e-07 0)
(0 -2.2972e-07 0)
(0 -2.28957e-07 0)
(0 -2.28187e-07 0)
(0 -2.27412e-07 0)
(0 -2.26633e-07 0)
(0 -2.25848e-07 0)
(0 -2.25063e-07 0)
(0 -2.24272e-07 0)
(0 -2.23475e-07 0)
(0 -2.22674e-07 0)
(0 -2.21869e-07 0)
(0 -2.21059e-07 0)
(0 -2.20245e-07 0)
(0 -2.19427e-07 0)
(0 -2.18606e-07 0)
(0 -2.1778e-07 0)
(0 -2.1695e-07 0)
(0 -2.16116e-07 0)
(0 -2.15276e-07 0)
(0 -2.14431e-07 0)
(0 -2.13584e-07 0)
(0 -2.12732e-07 0)
(0 -2.11875e-07 0)
(0 -2.11013e-07 0)
(0 -2.10147e-07 0)
(0 -2.09279e-07 0)
(0 -2.08405e-07 0)
(0 -2.07528e-07 0)
(0 -2.06649e-07 0)
(0 -2.05765e-07 0)
(0 -2.04875e-07 0)
(0 -2.03982e-07 0)
(0 -2.03086e-07 0)
(0 -2.02187e-07 0)
(0 -2.01285e-07 0)
(0 -2.00379e-07 0)
(0 -1.9947e-07 0)
(0 -1.98556e-07 0)
(0 -1.97638e-07 0)
(0 -1.96718e-07 0)
(0 -1.95794e-07 0)
(0 -1.94867e-07 0)
(0 -1.93939e-07 0)
(0 -1.93006e-07 0)
(0 -1.92067e-07 0)
(0 -1.91124e-07 0)
(0 -1.90181e-07 0)
(0 -1.89235e-07 0)
(0 -1.88285e-07 0)
(0 -1.87332e-07 0)
(0 -1.86376e-07 0)
(0 -1.85416e-07 0)
(0 -1.84455e-07 0)
(0 -1.83489e-07 0)
(0 -1.82521e-07 0)
(0 -1.81552e-07 0)
(0 -1.80577e-07 0)
(0 -1.796e-07 0)
(0 -1.7862e-07 0)
(0 -1.77635e-07 0)
(0 -1.7665e-07 0)
(0 -1.75664e-07 0)
(0 -1.74676e-07 0)
(0 -1.73683e-07 0)
(0 -1.72688e-07 0)
(0 -1.71688e-07 0)
(0 -1.70688e-07 0)
(0 -1.69688e-07 0)
(0 -1.68683e-07 0)
(0 -1.67677e-07 0)
(0 -1.66669e-07 0)
(0 -1.65657e-07 0)
(0 -1.64643e-07 0)
(0 -1.63627e-07 0)
(0 -1.62609e-07 0)
(0 -1.6159e-07 0)
(0 -1.6057e-07 0)
(0 -1.59548e-07 0)
(0 -1.58522e-07 0)
(0 -1.57494e-07 0)
(0 -1.56466e-07 0)
(0 -1.55436e-07 0)
(0 -1.54403e-07 0)
(0 -1.53368e-07 0)
(0 -1.52333e-07 0)
(0 -1.51295e-07 0)
(0 -1.50253e-07 0)
(0 -1.49212e-07 0)
(0 -1.48172e-07 0)
(0 -1.47131e-07 0)
(0 -1.46087e-07 0)
(0 -1.45041e-07 0)
(0 -1.43992e-07 0)
(0 -1.42945e-07 0)
(0 -1.41896e-07 0)
(0 -1.40843e-07 0)
(0 -1.39791e-07 0)
(0 -1.3874e-07 0)
(0 -1.37686e-07 0)
(0 -1.3663e-07 0)
(0 -1.35576e-07 0)
(0 -1.3452e-07 0)
(0 -1.33463e-07 0)
(0 -1.32404e-07 0)
(0 -1.31346e-07 0)
(0 -1.30289e-07 0)
(0 -1.2923e-07 0)
(0 -1.28171e-07 0)
(0 -1.27112e-07 0)
(0 -1.26055e-07 0)
(0 -1.24993e-07 0)
(0 -1.23928e-07 0)
(0 -1.22867e-07 0)
(0 -1.21806e-07 0)
(0 -1.20745e-07 0)
(0 -1.19683e-07 0)
(0 -1.18622e-07 0)
(0 -1.17561e-07 0)
(0 -1.16499e-07 0)
(0 -1.15437e-07 0)
(0 -1.14376e-07 0)
(0 -1.13315e-07 0)
(0 -1.12256e-07 0)
(0 -1.11197e-07 0)
(0 -1.1014e-07 0)
(0 -1.09083e-07 0)
(0 -1.08024e-07 0)
(0 -1.06966e-07 0)
(0 -1.0591e-07 0)
(0 -1.04855e-07 0)
(0 -1.038e-07 0)
(0 -1.02747e-07 0)
(0 -1.01694e-07 0)
(0 -1.00641e-07 0)
(0 -9.95895e-08 0)
(0 -9.85406e-08 0)
(0 -9.7492e-08 0)
(0 -9.64455e-08 0)
(0 -9.54002e-08 0)
(0 -9.43551e-08 0)
(0 -9.33132e-08 0)
(0 -9.22729e-08 0)
(0 -9.12353e-08 0)
(0 -9.0199e-08 0)
(0 -8.91628e-08 0)
(0 -8.81286e-08 0)
(0 -8.70957e-08 0)
(0 -8.60656e-08 0)
(0 -8.50385e-08 0)
(0 -8.40137e-08 0)
(0 -8.29912e-08 0)
(0 -8.19697e-08 0)
(0 -8.09499e-08 0)
(0 -7.99345e-08 0)
(0 -7.89207e-08 0)
(0 -7.79076e-08 0)
(0 -7.68974e-08 0)
(0 -7.58901e-08 0)
(0 -7.4885e-08 0)
(0 -7.38835e-08 0)
(0 -7.28851e-08 0)
(0 -7.18889e-08 0)
(0 -7.08979e-08 0)
(0 -6.99093e-08 0)
(0 -6.89218e-08 0)
(0 -6.7938e-08 0)
(0 -6.69595e-08 0)
(0 -6.59856e-08 0)
(0 -6.50133e-08 0)
(0 -6.40441e-08 0)
(0 -6.30791e-08 0)
(0 -6.21166e-08 0)
(0 -6.11578e-08 0)
(0 -6.0207e-08 0)
(0 -5.92581e-08 0)
(0 -5.83109e-08 0)
(0 -5.73703e-08 0)
(0 -5.64308e-08 0)
(0 -5.54956e-08 0)
(0 -5.45654e-08 0)
(0 -5.36393e-08 0)
(0 -5.27182e-08 0)
(0 -5.18005e-08 0)
(0 -5.08877e-08 0)
(0 -4.99795e-08 0)
(0 -4.90774e-08 0)
(0 -4.81803e-08 0)
(0 -4.72882e-08 0)
(0 -4.64019e-08 0)
(0 -4.55195e-08 0)
(0 -4.4642e-08 0)
(0 -4.37705e-08 0)
(0 -4.2905e-08 0)
(0 -4.20433e-08 0)
(0 -4.1187e-08 0)
(0 -4.03374e-08 0)
(0 -3.94954e-08 0)
(0 -3.86579e-08 0)
(0 -3.78251e-08 0)
(0 -3.69994e-08 0)
(0 -3.61794e-08 0)
(0 -3.53668e-08 0)
(0 -3.45599e-08 0)
(0 -3.37588e-08 0)
(0 -3.29658e-08 0)
(0 -3.21796e-08 0)
(0 -3.13993e-08 0)
(0 -3.06326e-08 0)
(0 -2.98843e-08 0)
(0 -2.9151e-08 0)
(0 -2.84352e-08 0)
(0 -2.77352e-08 0)
(0 -2.70496e-08 0)
(0 -2.6382e-08 0)
(0 -2.57265e-08 0)
(0 -2.50846e-08 0)
(0 -2.44593e-08 0)
(0 -2.38476e-08 0)
(0 -2.32484e-08 0)
(0 -2.26642e-08 0)
(0 -2.20943e-08 0)
(0 -2.15348e-08 0)
(0 -2.09882e-08 0)
(0 -2.04555e-08 0)
(0 -1.99337e-08 0)
(0 -1.94244e-08 0)
(0 -1.89282e-08 0)
(0 -1.84437e-08 0)
(0 -1.79694e-08 0)
(0 -1.7504e-08 0)
(0 -1.70502e-08 0)
(0 -1.66074e-08 0)
(0 -1.61754e-08 0)
(0 -1.57531e-08 0)
(0 -1.53423e-08 0)
(0 -1.49438e-08 0)
(0 -1.45529e-08 0)
(0 -1.41718e-08 0)
(0 -1.37996e-08 0)
(0 -1.3434e-08 0)
(0 -1.30782e-08 0)
(0 -1.27299e-08 0)
(0 -1.23895e-08 0)
(0 -1.20587e-08 0)
(0 -1.17336e-08 0)
(0 -1.14176e-08 0)
(0 -1.11115e-08 0)
(0 -1.08104e-08 0)
(0 -1.05173e-08 0)
(0 -1.02316e-08 0)
(0 -9.95234e-09 0)
(0 -9.68124e-09 0)
(0 -9.41816e-09 0)
(0 -9.15986e-09 0)
(0 -8.90755e-09 0)
(0 -8.66286e-09 0)
(0 -8.42387e-09 0)
(0 -8.19044e-09 0)
(0 -7.96195e-09 0)
(0 -7.74047e-09 0)
(0 -7.52405e-09 0)
(0 -7.31163e-09 0)
(0 -7.10523e-09 0)
(0 -6.90557e-09 0)
(0 -6.71066e-09 0)
(0 -6.51942e-09 0)
(0 -6.33386e-09 0)
(0 -6.15422e-09 0)
(0 -5.97938e-09 0)
(0 -5.80913e-09 0)
(0 -5.64146e-09 0)
(0 -5.47791e-09 0)
(0 -5.3178e-09 0)
(0 -5.15999e-09 0)
(0 -5.00913e-09 0)
(0 -4.86496e-09 0)
(0 -4.72412e-09 0)
(0 -4.58367e-09 0)
(0 -4.44824e-09 0)
(0 -4.31889e-09 0)
(0 -4.19223e-09 0)
(0 -4.06798e-09 0)
(0 -3.94587e-09 0)
(0 -3.82826e-09 0)
(0 -3.71309e-09 0)
(0 -3.60006e-09 0)
(0 -3.49199e-09 0)
(0 -3.3859e-09 0)
(0 -3.28283e-09 0)
(0 -3.18379e-09 0)
(0 -3.08536e-09 0)
(0 -2.98945e-09 0)
(0 -2.89707e-09 0)
(0 -2.80612e-09 0)
(0 -2.71849e-09 0)
(0 -2.63341e-09 0)
(0 -2.54922e-09 0)
(0 -2.46825e-09 0)
(0 -2.38926e-09 0)
(0 -2.31281e-09 0)
(0 -2.23899e-09 0)
(0 -2.16569e-09 0)
(0 -2.09432e-09 0)
(0 -2.02766e-09 0)
(0 -1.96267e-09 0)
(0 -1.89812e-09 0)
(0 -1.83542e-09 0)
(0 -1.77243e-09 0)
(0 -1.7119e-09 0)
(0 -1.65435e-09 0)
(0 -1.59985e-09 0)
(0 -1.54626e-09 0)
(0 -1.49232e-09 0)
(0 -1.44032e-09 0)
(0 -1.38944e-09 0)
(0 -1.34062e-09 0)
(0 -1.29305e-09 0)
(0 -1.24546e-09 0)
(0 -1.19834e-09 0)
(0 -1.1531e-09 0)
(0 -1.11155e-09 0)
(0 -1.07198e-09 0)
(0 -1.03089e-09 0)
(0 -9.89657e-10 0)
(0 -9.4967e-10 0)
(0 -9.10972e-10 0)
(0 -8.74498e-10 0)
(0 -8.38961e-10 0)
(0 -8.0307e-10 0)
(0 -7.67311e-10 0)
(0 -7.34388e-10 0)
(0 -7.03452e-10 0)
(0 -6.72318e-10 0)
(0 -6.41468e-10 0)
(0 -6.11378e-10 0)
(0 -5.82526e-10 0)
(0 -5.52279e-10 0)
(0 -5.22443e-10 0)
(0 -4.94379e-10 0)
(0 -4.66784e-10 0)
(0 -4.39239e-10 0)
(0 -4.13546e-10 0)
(0 -3.89285e-10 0)
(0 -3.62926e-10 0)
(0 -3.3671e-10 0)
(0 -3.11992e-10 0)
(0 -2.8879e-10 0)
(0 -2.67566e-10 0)
(0 -2.45229e-10 0)
(0 -2.22239e-10 0)
(0 -1.99944e-10 0)
(0 -1.75248e-10 0)
(0 -1.53938e-10 0)
(0 -1.31584e-10 0)
(0 -1.09974e-10 0)
(0 -9.0449e-11 0)
(0 -6.72447e-11 0)
(0 -4.5698e-11 0)
(0 -2.35948e-11 0)
(0 -2.71712e-12 0)
(0 1.73746e-11 0)
(0 3.93415e-11 0)
(0 6.05163e-11 0)
)
;

boundaryField
{
    bottom
    {
        type            fixedValue;
        value           uniform (0 0 0);
    }
    top
    {
        type            fluxCorrectedVelocity;
        phi             phi.gas;
        rho             rho.gas;
        value           uniform (0 7.06834e-11 0);
    }
    walls
    {
        type            fixedValue;
        value           uniform (0 0 0);
    }
}


// ************************************************************************* //
