/*--------------------------------*- C++ -*----------------------------------*\
| =========                 |                                                 |
| \\      /  F ield         | foam-extend: Open Source CFD                    |
|  \\    /   O peration     | Version:     5.0                                |
|   \\  /    A nd           | Web:         http://www.foam-extend.org         |
|    \\/     M anipulation  |                                                 |
\*---------------------------------------------------------------------------*/
FoamFile
{
    version     2.0;
    format      ascii;
    class       volVectorField;
    location    "5000";
    object      U.water;
}
// * * * * * * * * * * * * * * * * * * * * * * * * * * * * * * * * * * * * * //

dimensions      [0 1 -1 0 0 0 0];

internalField   nonuniform List<vector> 
1500
(
(0 1.15413e-11 0)
(0 -3.22579e-13 0)
(0 -1.96371e-11 0)
(0 -4.25268e-12 0)
(0 1.79555e-12 0)
(0 -1.73948e-12 0)
(0 -1.49934e-11 0)
(0 -2.57047e-11 0)
(0 -9.90059e-12 0)
(0 -2.03624e-11 0)
(0 -3.02312e-11 0)
(0 -2.46446e-11 0)
(0 -3.70425e-11 0)
(0 -3.40834e-11 0)
(0 -4.46173e-11 0)
(0 -5.07525e-11 0)
(0 -4.56359e-11 0)
(0 -6.97409e-11 0)
(0 -8.83489e-11 0)
(0 -7.8612e-11 0)
(0 -7.13416e-11 0)
(0 -1.05019e-10 0)
(0 -1.25805e-10 0)
(0 -1.02485e-10 0)
(0 -1.0979e-10 0)
(0 -1.33554e-10 0)
(0 -1.38587e-10 0)
(0 -1.56639e-10 0)
(0 -1.66136e-10 0)
(0 -1.71466e-10 0)
(0 -1.80906e-10 0)
(0 -1.96684e-10 0)
(0 -2.15187e-10 0)
(0 -2.05723e-10 0)
(0 -2.25603e-10 0)
(0 -2.43668e-10 0)
(0 -2.56764e-10 0)
(0 -2.74987e-10 0)
(0 -2.79375e-10 0)
(0 -3.09743e-10 0)
(0 -3.17408e-10 0)
(0 -3.1112e-10 0)
(0 -3.50178e-10 0)
(0 -3.70129e-10 0)
(0 -3.60089e-10 0)
(0 -3.87453e-10 0)
(0 -3.91848e-10 0)
(0 -4.2089e-10 0)
(0 -4.51661e-10 0)
(0 -4.43608e-10 0)
(0 -4.87565e-10 0)
(0 -5.13409e-10 0)
(0 -5.04216e-10 0)
(0 -5.27538e-10 0)
(0 -5.52348e-10 0)
(0 -5.73404e-10 0)
(0 -5.91404e-10 0)
(0 -6.0683e-10 0)
(0 -6.38196e-10 0)
(0 -6.62354e-10 0)
(0 -6.64385e-10 0)
(0 -6.8632e-10 0)
(0 -7.362e-10 0)
(0 -7.59828e-10 0)
(0 -7.52112e-10 0)
(0 -7.76716e-10 0)
(0 -8.06505e-10 0)
(0 -8.44068e-10 0)
(0 -8.78102e-10 0)
(0 -8.74129e-10 0)
(0 -9.05713e-10 0)
(0 -9.29897e-10 0)
(0 -9.5157e-10 0)
(0 -9.8087e-10 0)
(0 -1.01845e-09 0)
(0 -1.04156e-09 0)
(0 -1.05284e-09 0)
(0 -1.10012e-09 0)
(0 -1.12086e-09 0)
(0 -1.14532e-09 0)
(0 -1.1745e-09 0)
(0 -1.19307e-09 0)
(0 -1.22314e-09 0)
(0 -1.27731e-09 0)
(0 -1.30094e-09 0)
(0 -1.2972e-09 0)
(0 -1.36064e-09 0)
(0 -1.38601e-09 0)
(0 -1.40335e-09 0)
(0 -1.44051e-09 0)
(0 -1.47517e-09 0)
(0 -1.52135e-09 0)
(0 -1.54027e-09 0)
(0 -1.56031e-09 0)
(0 -1.60813e-09 0)
(0 -1.64418e-09 0)
(0 -1.66158e-09 0)
(0 -1.70672e-09 0)
(0 -1.74021e-09 0)
(0 -1.759e-09 0)
(0 -1.80544e-09 0)
(0 -1.84824e-09 0)
(0 -1.88397e-09 0)
(0 -1.90788e-09 0)
(0 -1.94018e-09 0)
(0 -2.01279e-09 0)
(0 -2.04142e-09 0)
(0 -2.05911e-09 0)
(0 -2.09369e-09 0)
(0 -2.13966e-09 0)
(0 -2.17826e-09 0)
(0 -2.202e-09 0)
(0 -2.25736e-09 0)
(0 -2.31285e-09 0)
(0 -2.32592e-09 0)
(0 -2.36675e-09 0)
(0 -2.42324e-09 0)
(0 -2.44948e-09 0)
(0 -2.4954e-09 0)
(0 -2.54143e-09 0)
(0 -2.57306e-09 0)
(0 -2.62747e-09 0)
(0 -2.66684e-09 0)
(0 -2.69583e-09 0)
(0 -2.75542e-09 0)
(0 -2.78838e-09 0)
(0 -2.84165e-09 0)
(0 -2.89064e-09 0)
(0 -2.92474e-09 0)
(0 -2.96346e-09 0)
(0 -2.99817e-09 0)
(0 -3.0649e-09 0)
(0 -3.12049e-09 0)
(0 -3.16764e-09 0)
(0 -3.19614e-09 0)
(0 -3.23724e-09 0)
(0 -3.29754e-09 0)
(0 -3.34297e-09 0)
(0 -3.38515e-09 0)
(0 -3.43099e-09 0)
(0 -3.48133e-09 0)
(0 -3.55968e-09 0)
(0 -3.59504e-09 0)
(0 -3.6149e-09 0)
(0 -3.69058e-09 0)
(0 -3.72337e-09 0)
(0 -3.77964e-09 0)
(0 -3.84468e-09 0)
(0 -3.8902e-09 0)
(0 -3.94298e-09 0)
(0 -3.995e-09 0)
(0 -4.04837e-09 0)
(0 -4.08203e-09 0)
(0 -4.15161e-09 0)
(0 -4.20226e-09 0)
(0 -4.2493e-09 0)
(0 -4.32303e-09 0)
(0 -4.36719e-09 0)
(0 -4.41886e-09 0)
(0 -4.46673e-09 0)
(0 -4.51544e-09 0)
(0 -4.58033e-09 0)
(0 -4.64589e-09 0)
(0 -4.69888e-09 0)
(0 -4.74461e-09 0)
(0 -4.81554e-09 0)
(0 -4.87755e-09 0)
(0 -4.93219e-09 0)
(0 -4.97274e-09 0)
(0 -5.03186e-09 0)
(0 -5.10743e-09 0)
(0 -5.15695e-09 0)
(0 -5.23306e-09 0)
(0 -5.27778e-09 0)
(0 -5.33549e-09 0)
(0 -5.39774e-09 0)
(0 -5.44819e-09 0)
(0 -5.53035e-09 0)
(0 -5.58931e-09 0)
(0 -5.64449e-09 0)
(0 -5.71182e-09 0)
(0 -5.76445e-09 0)
(0 -5.82865e-09 0)
(0 -5.88544e-09 0)
(0 -5.96659e-09 0)
(0 -6.03534e-09 0)
(0 -6.0778e-09 0)
(0 -6.14789e-09 0)
(0 -6.2218e-09 0)
(0 -6.28521e-09 0)
(0 -6.34829e-09 0)
(0 -6.42297e-09 0)
(0 -6.47553e-09 0)
(0 -6.5441e-09 0)
(0 -6.61623e-09 0)
(0 -6.68114e-09 0)
(0 -6.73896e-09 0)
(0 -6.82011e-09 0)
(0 -6.87809e-09 0)
(0 -6.94092e-09 0)
(0 -7.02028e-09 0)
(0 -7.09837e-09 0)
(0 -7.16958e-09 0)
(0 -7.21796e-09 0)
(0 -7.30968e-09 0)
(0 -7.3786e-09 0)
(0 -7.42726e-09 0)
(0 -7.50082e-09 0)
(0 -7.59016e-09 0)
(0 -7.67127e-09 0)
(0 -7.73004e-09 0)
(0 -7.78958e-09 0)
(0 -7.86424e-09 0)
(0 -7.95441e-09 0)
(0 -8.03851e-09 0)
(0 -8.09886e-09 0)
(0 -8.18227e-09 0)
(0 -8.24364e-09 0)
(0 -8.3091e-09 0)
(0 -8.39725e-09 0)
(0 -8.47204e-09 0)
(0 -8.54961e-09 0)
(0 -8.62779e-09 0)
(0 -8.70343e-09 0)
(0 -8.76986e-09 0)
(0 -8.84547e-09 0)
(0 -8.93743e-09 0)
(0 -9.02172e-09 0)
(0 -9.08168e-09 0)
(0 -9.16322e-09 0)
(0 -9.24862e-09 0)
(0 -9.3216e-09 0)
(0 -9.40734e-09 0)
(0 -9.49414e-09 0)
(0 -9.57269e-09 0)
(0 -9.65112e-09 0)
(0 -9.71483e-09 0)
(0 -9.81044e-09 0)
(0 -9.88737e-09 0)
(0 -9.96913e-09 0)
(0 -1.0065e-08 0)
(0 -1.01445e-08 0)
(0 -1.02168e-08 0)
(0 -1.03028e-08 0)
(0 -1.06384e-08 0)
(0 -1.35238e-08 0)
(0 -1.88904e-08 0)
(0 -2.43522e-08 0)
(0 -2.98556e-08 0)
(0 -3.53858e-08 0)
(0 -4.09331e-08 0)
(0 -4.65232e-08 0)
(0 -5.21527e-08 0)
(0 -5.78308e-08 0)
(0 -6.35271e-08 0)
(0 -6.92379e-08 0)
(0 -7.49621e-08 0)
(0 -8.07687e-08 0)
(0 -8.6616e-08 0)
(0 -9.24632e-08 0)
(0 -9.83295e-08 0)
(0 -1.04229e-07 0)
(0 -1.10214e-07 0)
(0 -1.16236e-07 0)
(0 -1.22261e-07 0)
(0 -1.28275e-07 0)
(0 -1.34296e-07 0)
(0 -1.4045e-07 0)
(0 -1.46598e-07 0)
(0 -1.52767e-07 0)
(0 -1.59026e-07 0)
(0 -1.6526e-07 0)
(0 -1.71492e-07 0)
(0 -1.77757e-07 0)
(0 -1.84097e-07 0)
(0 -1.90503e-07 0)
(0 -1.96868e-07 0)
(0 -2.0327e-07 0)
(0 -2.09698e-07 0)
(0 -2.16239e-07 0)
(0 -2.22785e-07 0)
(0 -2.29255e-07 0)
(0 -2.35863e-07 0)
(0 -2.42447e-07 0)
(0 -2.49007e-07 0)
(0 -2.55667e-07 0)
(0 -2.6253e-07 0)
(0 -2.69182e-07 0)
(0 -2.75828e-07 0)
(0 -2.82536e-07 0)
(0 -2.89384e-07 0)
(0 -2.96276e-07 0)
(0 -3.03061e-07 0)
(0 -3.09981e-07 0)
(0 -3.16893e-07 0)
(0 -3.2376e-07 0)
(0 -3.30724e-07 0)
(0 -3.37743e-07 0)
(0 -3.4476e-07 0)
(0 -3.51812e-07 0)
(0 -3.58714e-07 0)
(0 -3.65819e-07 0)
(0 -3.73028e-07 0)
(0 -3.80307e-07 0)
(0 -3.87401e-07 0)
(0 -3.94363e-07 0)
(0 -4.01659e-07 0)
(0 -4.08928e-07 0)
(0 -4.16029e-07 0)
(0 -4.23287e-07 0)
(0 -4.30647e-07 0)
(0 -4.37983e-07 0)
(0 -4.45516e-07 0)
(0 -4.5288e-07 0)
(0 -4.60138e-07 0)
(0 -4.67526e-07 0)
(0 -4.74928e-07 0)
(0 -4.82312e-07 0)
(0 -4.89761e-07 0)
(0 -4.97302e-07 0)
(0 -5.04942e-07 0)
(0 -5.12375e-07 0)
(0 -5.19947e-07 0)
(0 -5.27399e-07 0)
(0 -5.34789e-07 0)
(0 -5.42675e-07 0)
(0 -5.5032e-07 0)
(0 -5.57787e-07 0)
(0 -5.65447e-07 0)
(0 -5.73139e-07 0)
(0 -5.80804e-07 0)
(0 -5.88576e-07 0)
(0 -5.96265e-07 0)
(0 -6.03833e-07 0)
(0 -6.11579e-07 0)
(0 -6.19464e-07 0)
(0 -6.27318e-07 0)
(0 -6.34888e-07 0)
(0 -6.42681e-07 0)
(0 -6.50674e-07 0)
(0 -6.58563e-07 0)
(0 -6.6611e-07 0)
(0 -6.73904e-07 0)
(0 -6.82056e-07 0)
(0 -6.89767e-07 0)
(0 -6.97664e-07 0)
(0 -7.05611e-07 0)
(0 -7.13399e-07 0)
(0 -7.21189e-07 0)
(0 -7.29346e-07 0)
(0 -7.37262e-07 0)
(0 -7.45006e-07 0)
(0 -7.5321e-07 0)
(0 -7.6093e-07 0)
(0 -7.68688e-07 0)
(0 -7.76787e-07 0)
(0 -7.84747e-07 0)
(0 -7.92963e-07 0)
(0 -8.0076e-07 0)
(0 -8.08682e-07 0)
(0 -8.16776e-07 0)
(0 -8.24639e-07 0)
(0 -8.32487e-07 0)
(0 -8.40527e-07 0)
(0 -8.48934e-07 0)
(0 -8.56826e-07 0)
(0 -8.64513e-07 0)
(0 -8.72513e-07 0)
(0 -8.80734e-07 0)
(0 -8.8864e-07 0)
(0 -8.9659e-07 0)
(0 -9.04545e-07 0)
(0 -9.12529e-07 0)
(0 -9.20671e-07 0)
(0 -9.28469e-07 0)
(0 -9.36521e-07 0)
(0 -9.44532e-07 0)
(0 -9.5268e-07 0)
(0 -9.60427e-07 0)
(0 -9.68006e-07 0)
(0 -9.76564e-07 0)
(0 -9.8441e-07 0)
(0 -9.92085e-07 0)
(0 -1.00044e-06 0)
(0 -1.00842e-06 0)
(0 -1.01574e-06 0)
(0 -1.02394e-06 0)
(0 -1.03234e-06 0)
(0 -1.03969e-06 0)
(0 -1.04756e-06 0)
(0 -1.05541e-06 0)
(0 -1.06328e-06 0)
(0 -1.07147e-06 0)
(0 -1.07914e-06 0)
(0 -1.0869e-06 0)
(0 -1.09482e-06 0)
(0 -1.10243e-06 0)
(0 -1.1103e-06 0)
(0 -1.11821e-06 0)
(0 -1.12593e-06 0)
(0 -1.13378e-06 0)
(0 -1.14144e-06 0)
(0 -1.1488e-06 0)
(0 -1.15655e-06 0)
(0 -1.16436e-06 0)
(0 -1.17211e-06 0)
(0 -1.17994e-06 0)
(0 -1.18722e-06 0)
(0 -1.19446e-06 0)
(0 -1.20233e-06 0)
(0 -1.21019e-06 0)
(0 -1.21749e-06 0)
(0 -1.2248e-06 0)
(0 -1.23239e-06 0)
(0 -1.23977e-06 0)
(0 -1.24724e-06 0)
(0 -1.25481e-06 0)
(0 -1.26214e-06 0)
(0 -1.26938e-06 0)
(0 -1.27665e-06 0)
(0 -1.28419e-06 0)
(0 -1.29144e-06 0)
(0 -1.29822e-06 0)
(0 -1.30558e-06 0)
(0 -1.31312e-06 0)
(0 -1.32006e-06 0)
(0 -1.32698e-06 0)
(0 -1.33434e-06 0)
(0 -1.34132e-06 0)
(0 -1.34812e-06 0)
(0 -1.35525e-06 0)
(0 -1.3623e-06 0)
(0 -1.36893e-06 0)
(0 -1.37596e-06 0)
(0 -1.38295e-06 0)
(0 -1.38946e-06 0)
(0 -1.39618e-06 0)
(0 -1.40303e-06 0)
(0 -1.4098e-06 0)
(0 -1.4161e-06 0)
(0 -1.4231e-06 0)
(0 -1.42973e-06 0)
(0 -1.4358e-06 0)
(0 -1.44255e-06 0)
(0 -1.44904e-06 0)
(0 -1.45533e-06 0)
(0 -1.46172e-06 0)
(0 -1.46814e-06 0)
(0 -1.47425e-06 0)
(0 -1.48025e-06 0)
(0 -1.48656e-06 0)
(0 -1.49275e-06 0)
(0 -1.49878e-06 0)
(0 -1.50483e-06 0)
(0 -1.51082e-06 0)
(0 -1.51672e-06 0)
(0 -1.52235e-06 0)
(0 -1.52817e-06 0)
(0 -1.53435e-06 0)
(0 -1.53996e-06 0)
(0 -1.54531e-06 0)
(0 -1.5511e-06 0)
(0 -1.55661e-06 0)
(0 -1.56212e-06 0)
(0 -1.56771e-06 0)
(0 -1.57268e-06 0)
(0 -1.57819e-06 0)
(0 -1.5836e-06 0)
(0 -1.58862e-06 0)
(0 -1.59385e-06 0)
(0 -1.59921e-06 0)
(0 -1.6043e-06 0)
(0 -1.60874e-06 0)
(0 -1.6137e-06 0)
(0 -1.61881e-06 0)
(0 -1.62344e-06 0)
(0 -1.62798e-06 0)
(0 -1.63269e-06 0)
(0 -1.63756e-06 0)
(0 -1.64194e-06 0)
(0 -1.6465e-06 0)
(0 -1.65086e-06 0)
(0 -1.65487e-06 0)
(0 -1.65924e-06 0)
(0 -1.66329e-06 0)
(0 -1.6676e-06 0)
(0 -1.67184e-06 0)
(0 -1.67578e-06 0)
(0 -1.67933e-06 0)
(0 -1.68307e-06 0)
(0 -1.68717e-06 0)
(0 -1.69092e-06 0)
(0 -1.69427e-06 0)
(0 -1.69781e-06 0)
(0 -1.70147e-06 0)
(0 -1.70477e-06 0)
(0 -1.70797e-06 0)
(0 -1.71112e-06 0)
(0 -1.71437e-06 0)
(0 -1.7174e-06 0)
(0 -1.72029e-06 0)
(0 -1.72337e-06 0)
(0 -1.72615e-06 0)
(0 -1.72878e-06 0)
(0 -1.73152e-06 0)
(0 -1.7342e-06 0)
(0 -1.73651e-06 0)
(0 -1.73889e-06 0)
(0 -1.74144e-06 0)
(0 -1.74358e-06 0)
(0 -1.74578e-06 0)
(0 -1.74783e-06 0)
(0 -1.74959e-06 0)
(0 -1.75168e-06 0)
(0 -1.75336e-06 0)
(0 -1.75483e-06 0)
(0 -1.7571e-06 0)
(0 -1.75869e-06 0)
(0 -1.75964e-06 0)
(0 -1.76097e-06 0)
(0 -1.76245e-06 0)
(0 -1.76362e-06 0)
(0 -1.76441e-06 0)
(0 -1.76553e-06 0)
(0 -1.76683e-06 0)
(0 -1.76732e-06 0)
(0 -1.76768e-06 0)
(0 -1.76871e-06 0)
(0 -1.76927e-06 0)
(0 -1.76926e-06 0)
(0 -1.76979e-06 0)
(0 -1.77008e-06 0)
(0 -1.77003e-06 0)
(0 -1.77024e-06 0)
(0 -1.76991e-06 0)
(0 -1.76979e-06 0)
(0 -1.76952e-06 0)
(0 -1.76902e-06 0)
(0 -1.76886e-06 0)
(0 -1.76793e-06 0)
(0 -1.7672e-06 0)
(0 -1.7666e-06 0)
(0 -1.76554e-06 0)
(0 -1.76477e-06 0)
(0 -1.76367e-06 0)
(0 -1.7621e-06 0)
(0 -1.76073e-06 0)
(0 -1.75944e-06 0)
(0 -1.75791e-06 0)
(0 -1.75603e-06 0)
(0 -1.75437e-06 0)
(0 -1.75267e-06 0)
(0 -1.75068e-06 0)
(0 -1.74854e-06 0)
(0 -1.7462e-06 0)
(0 -1.74384e-06 0)
(0 -1.74166e-06 0)
(0 -1.739e-06 0)
(0 -1.73624e-06 0)
(0 -1.73359e-06 0)
(0 -1.73046e-06 0)
(0 -1.72733e-06 0)
(0 -1.72452e-06 0)
(0 -1.72156e-06 0)
(0 -1.71787e-06 0)
(0 -1.71418e-06 0)
(0 -1.71061e-06 0)
(0 -1.70712e-06 0)
(0 -1.70334e-06 0)
(0 -1.69933e-06 0)
(0 -1.69528e-06 0)
(0 -1.69106e-06 0)
(0 -1.68682e-06 0)
(0 -1.68229e-06 0)
(0 -1.67778e-06 0)
(0 -1.67322e-06 0)
(0 -1.66832e-06 0)
(0 -1.66334e-06 0)
(0 -1.65831e-06 0)
(0 -1.6533e-06 0)
(0 -1.64791e-06 0)
(0 -1.64246e-06 0)
(0 -1.63695e-06 0)
(0 -1.63114e-06 0)
(0 -1.62561e-06 0)
(0 -1.61968e-06 0)
(0 -1.61348e-06 0)
(0 -1.60756e-06 0)
(0 -1.60131e-06 0)
(0 -1.59472e-06 0)
(0 -1.58807e-06 0)
(0 -1.58146e-06 0)
(0 -1.57473e-06 0)
(0 -1.56788e-06 0)
(0 -1.56091e-06 0)
(0 -1.55348e-06 0)
(0 -1.54618e-06 0)
(0 -1.53876e-06 0)
(0 -1.53121e-06 0)
(0 -1.52351e-06 0)
(0 -1.51553e-06 0)
(0 -1.50783e-06 0)
(0 -1.49984e-06 0)
(0 -1.49126e-06 0)
(0 -1.48288e-06 0)
(0 -1.47464e-06 0)
(0 -1.46577e-06 0)
(0 -1.457e-06 0)
(0 -1.44827e-06 0)
(0 -1.43921e-06 0)
(0 -1.43007e-06 0)
(0 -1.42059e-06 0)
(0 -1.41101e-06 0)
(0 -1.40171e-06 0)
(0 -1.39197e-06 0)
(0 -1.38191e-06 0)
(0 -1.37211e-06 0)
(0 -1.36212e-06 0)
(0 -1.35185e-06 0)
(0 -1.34115e-06 0)
(0 -1.33048e-06 0)
(0 -1.32012e-06 0)
(0 -1.30947e-06 0)
(0 -1.29848e-06 0)
(0 -1.28718e-06 0)
(0 -1.276e-06 0)
(0 -1.26466e-06 0)
(0 -1.25313e-06 0)
(0 -1.24166e-06 0)
(0 -1.22973e-06 0)
(0 -1.21773e-06 0)
(0 -1.2057e-06 0)
(0 -1.19379e-06 0)
(0 -1.18124e-06 0)
(0 -1.16861e-06 0)
(0 -1.15617e-06 0)
(0 -1.14348e-06 0)
(0 -1.13057e-06 0)
(0 -1.1173e-06 0)
(0 -1.10437e-06 0)
(0 -1.09088e-06 0)
(0 -1.07729e-06 0)
(0 -1.06373e-06 0)
(0 -1.05001e-06 0)
(0 -1.03631e-06 0)
(0 -1.02218e-06 0)
(0 -1.00794e-06 0)
(0 -9.93641e-07 0)
(0 -9.79248e-07 0)
(0 -9.64417e-07 0)
(0 -9.49845e-07 0)
(0 -9.35042e-07 0)
(0 -9.19888e-07 0)
(0 -9.04646e-07 0)
(0 -8.89174e-07 0)
(0 -8.74029e-07 0)
(0 -8.58415e-07 0)
(0 -8.42527e-07 0)
(0 -8.26597e-07 0)
(0 -8.10556e-07 0)
(0 -7.94502e-07 0)
(0 -7.7813e-07 0)
(0 -7.61671e-07 0)
(0 -7.44893e-07 0)
(0 -7.28147e-07 0)
(0 -7.11359e-07 0)
(0 -6.94283e-07 0)
(0 -6.77244e-07 0)
(0 -6.59592e-07 0)
(0 -6.42049e-07 0)
(0 -6.24816e-07 0)
(0 -6.06961e-07 0)
(0 -5.89018e-07 0)
(0 -5.70913e-07 0)
(0 -5.52634e-07 0)
(0 -5.34437e-07 0)
(0 -5.15866e-07 0)
(0 -4.97109e-07 0)
(0 -4.78332e-07 0)
(0 -4.59356e-07 0)
(0 -4.40398e-07 0)
(0 -4.21436e-07 0)
(0 -4.01734e-07 0)
(0 -3.82167e-07 0)
(0 -3.62786e-07 0)
(0 -3.42913e-07 0)
(0 -3.22902e-07 0)
(0 -3.02881e-07 0)
(0 -2.82536e-07 0)
(0 -2.62347e-07 0)
(0 -2.41856e-07 0)
(0 -2.20905e-07 0)
(0 -2.00289e-07 0)
(0 -1.79402e-07 0)
(0 -1.58174e-07 0)
(0 -1.36924e-07 0)
(0 -1.1567e-07 0)
(0 -9.42222e-08 0)
(0 -7.24831e-08 0)
(0 -5.06193e-08 0)
(0 -2.86253e-08 0)
(0 -6.55157e-09 0)
(0 1.56749e-08 0)
(0 3.80459e-08 0)
(0 6.05244e-08 0)
(0 8.32621e-08 0)
(0 1.0604e-07 0)
(0 1.2905e-07 0)
(0 1.52121e-07 0)
(0 1.75412e-07 0)
(0 1.98754e-07 0)
(0 2.22156e-07 0)
(0 2.45867e-07 0)
(0 2.69661e-07 0)
(0 2.93803e-07 0)
(0 3.17877e-07 0)
(0 3.41826e-07 0)
(0 3.66393e-07 0)
(0 3.90972e-07 0)
(0 4.15518e-07 0)
(0 4.40242e-07 0)
(0 4.65227e-07 0)
(0 4.90332e-07 0)
(0 5.15567e-07 0)
(0 5.41082e-07 0)
(0 5.66429e-07 0)
(0 5.92113e-07 0)
(0 6.17893e-07 0)
(0 6.43716e-07 0)
(0 6.69837e-07 0)
(0 6.95996e-07 0)
(0 7.22361e-07 0)
(0 7.48946e-07 0)
(0 7.75525e-07 0)
(0 8.02062e-07 0)
(0 8.28883e-07 0)
(0 8.56049e-07 0)
(0 8.83486e-07 0)
(0 9.10684e-07 0)
(0 9.37767e-07 0)
(0 9.65507e-07 0)
(0 9.93247e-07 0)
(0 1.02119e-06 0)
(0 1.04924e-06 0)
(0 1.07717e-06 0)
(0 1.10536e-06 0)
(0 1.13387e-06 0)
(0 1.16264e-06 0)
(0 1.19118e-06 0)
(0 1.21973e-06 0)
(0 1.24875e-06 0)
(0 1.27802e-06 0)
(0 1.30717e-06 0)
(0 1.33639e-06 0)
(0 1.36579e-06 0)
(0 1.39536e-06 0)
(0 1.42509e-06 0)
(0 1.45522e-06 0)
(0 1.4852e-06 0)
(0 1.51506e-06 0)
(0 1.54542e-06 0)
(0 1.57581e-06 0)
(0 1.60642e-06 0)
(0 1.63707e-06 0)
(0 1.66774e-06 0)
(0 1.69888e-06 0)
(0 1.72987e-06 0)
(0 1.76084e-06 0)
(0 1.79225e-06 0)
(0 1.8238e-06 0)
(0 1.85544e-06 0)
(0 1.887e-06 0)
(0 1.9187e-06 0)
(0 1.95072e-06 0)
(0 1.98283e-06 0)
(0 2.01511e-06 0)
(0 2.04744e-06 0)
(0 2.07971e-06 0)
(0 2.11237e-06 0)
(0 2.14526e-06 0)
(0 2.17814e-06 0)
(0 2.21087e-06 0)
(0 2.24386e-06 0)
(0 2.27727e-06 0)
(0 2.31064e-06 0)
(0 2.34423e-06 0)
(0 2.37779e-06 0)
(0 2.41129e-06 0)
(0 2.44521e-06 0)
(0 2.47918e-06 0)
(0 2.51322e-06 0)
(0 2.54758e-06 0)
(0 2.58177e-06 0)
(0 2.61616e-06 0)
(0 2.65088e-06 0)
(0 2.68557e-06 0)
(0 2.72024e-06 0)
(0 2.7552e-06 0)
(0 2.7903e-06 0)
(0 2.82545e-06 0)
(0 2.86087e-06 0)
(0 2.89621e-06 0)
(0 2.93171e-06 0)
(0 2.96728e-06 0)
(0 3.00311e-06 0)
(0 3.0391e-06 0)
(0 3.07506e-06 0)
(0 3.11119e-06 0)
(0 3.14734e-06 0)
(0 3.18365e-06 0)
(0 3.22025e-06 0)
(0 3.25681e-06 0)
(0 3.29345e-06 0)
(0 3.33023e-06 0)
(0 3.36717e-06 0)
(0 3.40444e-06 0)
(0 3.4415e-06 0)
(0 3.47855e-06 0)
(0 3.51599e-06 0)
(0 3.55365e-06 0)
(0 3.5912e-06 0)
(0 3.62887e-06 0)
(0 3.66672e-06 0)
(0 3.70471e-06 0)
(0 3.74269e-06 0)
(0 3.78066e-06 0)
(0 3.81912e-06 0)
(0 3.85757e-06 0)
(0 3.89605e-06 0)
(0 3.93472e-06 0)
(0 3.97338e-06 0)
(0 4.01216e-06 0)
(0 4.05098e-06 0)
(0 4.09011e-06 0)
(0 4.12924e-06 0)
(0 4.16845e-06 0)
(0 4.20788e-06 0)
(0 4.24741e-06 0)
(0 4.28704e-06 0)
(0 4.32643e-06 0)
(0 4.36621e-06 0)
(0 4.40624e-06 0)
(0 4.4461e-06 0)
(0 4.48625e-06 0)
(0 4.52665e-06 0)
(0 4.56675e-06 0)
(0 4.60705e-06 0)
(0 4.64768e-06 0)
(0 4.68824e-06 0)
(0 4.72905e-06 0)
(0 4.76977e-06 0)
(0 4.81067e-06 0)
(0 4.85182e-06 0)
(0 4.89273e-06 0)
(0 4.93391e-06 0)
(0 4.97541e-06 0)
(0 5.01665e-06 0)
(0 5.05802e-06 0)
(0 5.09973e-06 0)
(0 5.14155e-06 0)
(0 5.18332e-06 0)
(0 5.22518e-06 0)
(0 5.26717e-06 0)
(0 5.30921e-06 0)
(0 5.35139e-06 0)
(0 5.39376e-06 0)
(0 5.43602e-06 0)
(0 5.47854e-06 0)
(0 5.5212e-06 0)
(0 5.56367e-06 0)
(0 5.60657e-06 0)
(0 5.64937e-06 0)
(0 5.69219e-06 0)
(0 5.73546e-06 0)
(0 5.77841e-06 0)
(0 5.8215e-06 0)
(0 5.86491e-06 0)
(0 5.90834e-06 0)
(0 5.95174e-06 0)
(0 5.99523e-06 0)
(0 6.03901e-06 0)
(0 6.08277e-06 0)
(0 6.12663e-06 0)
(0 6.17073e-06 0)
(0 6.21465e-06 0)
(0 6.25865e-06 0)
(0 6.30282e-06 0)
(0 6.34712e-06 0)
(0 6.39149e-06 0)
(0 6.43587e-06 0)
(0 6.48042e-06 0)
(0 6.52509e-06 0)
(0 6.56976e-06 0)
(0 6.61461e-06 0)
(0 6.65973e-06 0)
(0 6.7045e-06 0)
(0 6.74941e-06 0)
(0 6.79458e-06 0)
(0 6.83982e-06 0)
(0 6.88515e-06 0)
(0 6.93056e-06 0)
(0 6.976e-06 0)
(0 7.02151e-06 0)
(0 7.06713e-06 0)
(0 7.11279e-06 0)
(0 7.1586e-06 0)
(0 7.20445e-06 0)
(0 7.25049e-06 0)
(0 7.29645e-06 0)
(0 7.34253e-06 0)
(0 7.38871e-06 0)
(0 7.43495e-06 0)
(0 7.48138e-06 0)
(0 7.52773e-06 0)
(0 7.57423e-06 0)
(0 7.62086e-06 0)
(0 7.66748e-06 0)
(0 7.71409e-06 0)
(0 7.76093e-06 0)
(0 7.80799e-06 0)
(0 7.85481e-06 0)
(0 7.90164e-06 0)
(0 7.94897e-06 0)
(0 7.99616e-06 0)
(0 8.04327e-06 0)
(0 8.09062e-06 0)
(0 8.13788e-06 0)
(0 8.18559e-06 0)
(0 8.23298e-06 0)
(0 8.28047e-06 0)
(0 8.32848e-06 0)
(0 8.37616e-06 0)
(0 8.42375e-06 0)
(0 8.47168e-06 0)
(0 8.51979e-06 0)
(0 8.56778e-06 0)
(0 8.61576e-06 0)
(0 8.66392e-06 0)
(0 8.71241e-06 0)
(0 8.76054e-06 0)
(0 8.80875e-06 0)
(0 8.85744e-06 0)
(0 8.90596e-06 0)
(0 8.95443e-06 0)
(0 9.00303e-06 0)
(0 9.05187e-06 0)
(0 9.10073e-06 0)
(0 9.1494e-06 0)
(0 9.19832e-06 0)
(0 9.24726e-06 0)
(0 9.29635e-06 0)
(0 9.34556e-06 0)
(0 9.39463e-06 0)
(0 9.4438e-06 0)
(0 9.49317e-06 0)
(0 9.54251e-06 0)
(0 9.59189e-06 0)
(0 9.64144e-06 0)
(0 9.69093e-06 0)
(0 9.74041e-06 0)
(0 9.79024e-06 0)
(0 9.83999e-06 0)
(0 9.8896e-06 0)
(0 9.93952e-06 0)
(0 9.98948e-06 0)
(0 1.00396e-05 0)
(0 1.00895e-05 0)
(0 1.01393e-05 0)
(0 1.01897e-05 0)
(0 1.024e-05 0)
(0 1.02901e-05 0)
(0 1.03406e-05 0)
(0 1.03908e-05 0)
(0 1.0441e-05 0)
(0 1.04918e-05 0)
(0 1.05424e-05 0)
(0 1.05929e-05 0)
(0 1.06436e-05 0)
(0 1.06943e-05 0)
(0 1.0745e-05 0)
(0 1.0796e-05 0)
(0 1.08467e-05 0)
(0 1.08977e-05 0)
(0 1.09487e-05 0)
(0 1.09998e-05 0)
(0 1.1051e-05 0)
(0 1.11019e-05 0)
(0 1.11531e-05 0)
(0 1.12044e-05 0)
(0 1.12558e-05 0)
(0 1.13072e-05 0)
(0 1.13585e-05 0)
(0 1.14102e-05 0)
(0 1.14616e-05 0)
(0 1.15129e-05 0)
(0 1.15647e-05 0)
(0 1.16164e-05 0)
(0 1.16679e-05 0)
(0 1.172e-05 0)
(0 1.17719e-05 0)
(0 1.18235e-05 0)
(0 1.18753e-05 0)
(0 1.19274e-05 0)
(0 1.19794e-05 0)
(0 1.20316e-05 0)
(0 1.20836e-05 0)
(0 1.21357e-05 0)
(0 1.21879e-05 0)
(0 1.22402e-05 0)
(0 1.22927e-05 0)
(0 1.23451e-05 0)
(0 1.23972e-05 0)
(0 1.24496e-05 0)
(0 1.25022e-05 0)
(0 1.25547e-05 0)
(0 1.26073e-05 0)
(0 1.26599e-05 0)
(0 1.27126e-05 0)
(0 1.27653e-05 0)
(0 1.28179e-05 0)
(0 1.28707e-05 0)
(0 1.29238e-05 0)
(0 1.29766e-05 0)
(0 1.30295e-05 0)
(0 1.30825e-05 0)
(0 1.31354e-05 0)
(0 1.31885e-05 0)
(0 1.32416e-05 0)
(0 1.32947e-05 0)
(0 1.33478e-05 0)
(0 1.3401e-05 0)
(0 1.34544e-05 0)
(0 1.35077e-05 0)
(0 1.3561e-05 0)
(0 1.36145e-05 0)
(0 1.36679e-05 0)
(0 1.37211e-05 0)
(0 1.37747e-05 0)
(0 1.38284e-05 0)
(0 1.38818e-05 0)
(0 1.39356e-05 0)
(0 1.39893e-05 0)
(0 1.40428e-05 0)
(0 1.40965e-05 0)
(0 1.41502e-05 0)
(0 1.42042e-05 0)
(0 1.42581e-05 0)
(0 1.43118e-05 0)
(0 1.43658e-05 0)
(0 1.44198e-05 0)
(0 1.44736e-05 0)
(0 1.45278e-05 0)
(0 1.45819e-05 0)
(0 1.46358e-05 0)
(0 1.46901e-05 0)
(0 1.47442e-05 0)
(0 1.47984e-05 0)
(0 1.48528e-05 0)
(0 1.49069e-05 0)
(0 1.49613e-05 0)
(0 1.50156e-05 0)
(0 1.50699e-05 0)
(0 1.51245e-05 0)
(0 1.51789e-05 0)
(0 1.52332e-05 0)
(0 1.52877e-05 0)
(0 1.53423e-05 0)
(0 1.5397e-05 0)
(0 1.54516e-05 0)
(0 1.55062e-05 0)
(0 1.55608e-05 0)
(0 1.56156e-05 0)
(0 1.56703e-05 0)
(0 1.5725e-05 0)
(0 1.57797e-05 0)
(0 1.58346e-05 0)
(0 1.58896e-05 0)
(0 1.59443e-05 0)
(0 1.59993e-05 0)
(0 1.60544e-05 0)
(0 1.61093e-05 0)
(0 1.61642e-05 0)
(0 1.62192e-05 0)
(0 1.62744e-05 0)
(0 1.63295e-05 0)
(0 1.63845e-05 0)
(0 1.64398e-05 0)
(0 1.6495e-05 0)
(0 1.65501e-05 0)
(0 1.66054e-05 0)
(0 1.66606e-05 0)
(0 1.67159e-05 0)
(0 1.67713e-05 0)
(0 1.68265e-05 0)
(0 1.68819e-05 0)
(0 1.69375e-05 0)
(0 1.69928e-05 0)
(0 1.70483e-05 0)
(0 1.71038e-05 0)
(0 1.71593e-05 0)
(0 1.72147e-05 0)
(0 1.72703e-05 0)
(0 1.73259e-05 0)
(0 1.73816e-05 0)
(0 1.74373e-05 0)
(0 1.74929e-05 0)
(0 1.75485e-05 0)
(0 1.76043e-05 0)
(0 1.76601e-05 0)
(0 1.77158e-05 0)
(0 1.77715e-05 0)
(0 1.78273e-05 0)
(0 1.78832e-05 0)
(0 1.79391e-05 0)
(0 1.7995e-05 0)
(0 1.80508e-05 0)
(0 1.81068e-05 0)
(0 1.81628e-05 0)
(0 1.82186e-05 0)
(0 1.82747e-05 0)
(0 1.83308e-05 0)
(0 1.83866e-05 0)
(0 1.84427e-05 0)
(0 1.8499e-05 0)
(0 1.85551e-05 0)
(0 1.86111e-05 0)
(0 1.86673e-05 0)
(0 1.87234e-05 0)
(0 1.87796e-05 0)
(0 1.8836e-05 0)
(0 1.88921e-05 0)
(0 1.89483e-05 0)
(0 1.90046e-05 0)
(0 1.90609e-05 0)
(0 1.91173e-05 0)
(0 1.91737e-05 0)
(0 1.92301e-05 0)
(0 1.92864e-05 0)
(0 1.93426e-05 0)
(0 1.93992e-05 0)
(0 1.94557e-05 0)
(0 1.95121e-05 0)
(0 1.95687e-05 0)
(0 1.96252e-05 0)
(0 1.96815e-05 0)
(0 1.97381e-05 0)
(0 1.97947e-05 0)
(0 1.98514e-05 0)
(0 1.99079e-05 0)
(0 1.99645e-05 0)
(0 2.00213e-05 0)
(0 2.00778e-05 0)
(0 2.01344e-05 0)
(0 2.01911e-05 0)
(0 2.02479e-05 0)
(0 2.03046e-05 0)
(0 2.03614e-05 0)
(0 2.04181e-05 0)
(0 2.04748e-05 0)
(0 2.05317e-05 0)
(0 2.05885e-05 0)
(0 2.06454e-05 0)
(0 2.07021e-05 0)
(0 2.0759e-05 0)
(0 2.0816e-05 0)
(0 2.08729e-05 0)
(0 2.09296e-05 0)
(0 2.09867e-05 0)
(0 2.10437e-05 0)
(0 2.11006e-05 0)
(0 2.11576e-05 0)
(0 2.12146e-05 0)
(0 2.12717e-05 0)
(0 2.13286e-05 0)
(0 2.13857e-05 0)
(0 2.14428e-05 0)
(0 2.14998e-05 0)
(0 2.1557e-05 0)
(0 2.16141e-05 0)
(0 2.16711e-05 0)
(0 2.17282e-05 0)
(0 2.17855e-05 0)
(0 2.18428e-05 0)
(0 2.18999e-05 0)
(0 2.1957e-05 0)
(0 2.20143e-05 0)
(0 2.20716e-05 0)
(0 2.21288e-05 0)
(0 2.21861e-05 0)
(0 2.22433e-05 0)
(0 2.23007e-05 0)
(0 2.2358e-05 0)
(0 2.24152e-05 0)
(0 2.24727e-05 0)
(0 2.253e-05 0)
(0 2.25874e-05 0)
(0 2.26449e-05 0)
(0 2.27023e-05 0)
(0 2.27597e-05 0)
(0 2.28171e-05 0)
(0 2.28745e-05 0)
(0 2.2932e-05 0)
(0 2.29895e-05 0)
(0 2.30471e-05 0)
(0 2.31045e-05 0)
(0 2.31622e-05 0)
(0 2.32197e-05 0)
(0 2.32771e-05 0)
(0 2.33348e-05 0)
(0 2.33924e-05 0)
(0 2.34499e-05 0)
(0 2.35077e-05 0)
(0 2.35654e-05 0)
(0 2.36229e-05 0)
(0 2.36805e-05 0)
(0 2.37383e-05 0)
(0 2.37961e-05 0)
(0 2.38538e-05 0)
(0 2.39114e-05 0)
(0 2.39692e-05 0)
(0 2.40271e-05 0)
(0 2.40848e-05 0)
(0 2.41425e-05 0)
(0 2.42005e-05 0)
(0 2.42584e-05 0)
(0 2.43162e-05 0)
(0 2.43741e-05 0)
(0 2.44319e-05 0)
(0 2.44898e-05 0)
(0 2.45479e-05 0)
(0 2.46057e-05 0)
(0 2.46636e-05 0)
(0 2.47217e-05 0)
(0 2.47798e-05 0)
(0 2.48377e-05 0)
(0 2.48957e-05 0)
(0 2.49539e-05 0)
(0 2.5012e-05 0)
(0 2.507e-05 0)
(0 2.51281e-05 0)
(0 2.51864e-05 0)
(0 2.52445e-05 0)
(0 2.53027e-05 0)
(0 2.53609e-05 0)
(0 2.54192e-05 0)
(0 2.54774e-05 0)
(0 2.55356e-05 0)
(0 2.55939e-05 0)
(0 2.56524e-05 0)
(0 2.57107e-05 0)
(0 2.5769e-05 0)
(0 2.58274e-05 0)
(0 2.58859e-05 0)
(0 2.59444e-05 0)
(0 2.60028e-05 0)
(0 2.60613e-05 0)
(0 2.61199e-05 0)
(0 2.61784e-05 0)
(0 2.62371e-05 0)
(0 2.62957e-05 0)
(0 2.63544e-05 0)
(0 2.6413e-05 0)
(0 2.64717e-05 0)
(0 2.65305e-05 0)
(0 2.65894e-05 0)
(0 2.66482e-05 0)
(0 2.6707e-05 0)
(0 2.67659e-05 0)
(0 2.68249e-05 0)
(0 2.68838e-05 0)
(0 2.69428e-05 0)
(0 2.7002e-05 0)
(0 2.7061e-05 0)
(0 2.71202e-05 0)
(0 2.71794e-05 0)
(0 2.72386e-05 0)
(0 2.7298e-05 0)
(0 2.73573e-05 0)
(0 2.74167e-05 0)
(0 2.74761e-05 0)
(0 2.75356e-05 0)
(0 2.75952e-05 0)
(0 2.76548e-05 0)
(0 2.77145e-05 0)
(0 2.77742e-05 0)
(0 2.7834e-05 0)
(0 2.78939e-05 0)
(0 2.79538e-05 0)
(0 2.80138e-05 0)
(0 2.80739e-05 0)
(0 2.81341e-05 0)
(0 2.81942e-05 0)
(0 2.82546e-05 0)
(0 2.8315e-05 0)
(0 2.83755e-05 0)
(0 2.84361e-05 0)
(0 2.84968e-05 0)
(0 2.85575e-05 0)
(0 2.86185e-05 0)
(0 2.86794e-05 0)
(0 2.87404e-05 0)
(0 2.88017e-05 0)
(0 2.88631e-05 0)
(0 2.89245e-05 0)
(0 2.8986e-05 0)
(0 2.90477e-05 0)
(0 2.91096e-05 0)
(0 2.91716e-05 0)
(0 2.92337e-05 0)
(0 2.92961e-05 0)
(0 2.93585e-05 0)
(0 2.94211e-05 0)
(0 2.9484e-05 0)
(0 2.95469e-05 0)
(0 2.96101e-05 0)
(0 2.96735e-05 0)
(0 2.97371e-05 0)
(0 2.9801e-05 0)
(0 2.9865e-05 0)
(0 2.99293e-05 0)
(0 2.99939e-05 0)
(0 3.00588e-05 0)
(0 3.01239e-05 0)
(0 3.01892e-05 0)
(0 3.02549e-05 0)
(0 3.0321e-05 0)
(0 3.03873e-05 0)
(0 3.04541e-05 0)
(0 3.05212e-05 0)
(0 3.05887e-05 0)
(0 3.06566e-05 0)
(0 3.0725e-05 0)
(0 3.07938e-05 0)
(0 3.08631e-05 0)
(0 3.0933e-05 0)
(0 3.10034e-05 0)
(0 3.10743e-05 0)
(0 3.1146e-05 0)
(0 3.12182e-05 0)
(0 3.12911e-05 0)
(0 3.13649e-05 0)
(0 3.14394e-05 0)
(0 3.15148e-05 0)
(0 3.1593e-05 0)
(0 3.16712e-05 0)
(0 3.17493e-05 0)
(0 3.18274e-05 0)
(0 3.19055e-05 0)
(0 3.19836e-05 0)
(0 3.20617e-05 0)
(0 3.21396e-05 0)
(0 3.22176e-05 0)
(0 3.22955e-05 0)
(0 3.23733e-05 0)
(0 3.24511e-05 0)
(0 3.25288e-05 0)
(0 3.26065e-05 0)
(0 3.2684e-05 0)
(0 3.27615e-05 0)
(0 3.2839e-05 0)
(0 3.29163e-05 0)
(0 3.29936e-05 0)
(0 3.30708e-05 0)
(0 3.31479e-05 0)
(0 3.3225e-05 0)
(0 3.33019e-05 0)
(0 3.33789e-05 0)
(0 3.34557e-05 0)
(0 3.35324e-05 0)
(0 3.3609e-05 0)
(0 3.36856e-05 0)
(0 3.37621e-05 0)
(0 3.38384e-05 0)
(0 3.39146e-05 0)
(0 3.39908e-05 0)
(0 3.40669e-05 0)
(0 3.41428e-05 0)
(0 3.42187e-05 0)
(0 3.42944e-05 0)
(0 3.43701e-05 0)
(0 3.44455e-05 0)
(0 3.45209e-05 0)
(0 3.45961e-05 0)
(0 3.46712e-05 0)
(0 3.47461e-05 0)
(0 3.48209e-05 0)
(0 3.48955e-05 0)
(0 3.497e-05 0)
(0 3.50443e-05 0)
(0 3.51183e-05 0)
(0 3.51922e-05 0)
(0 3.52659e-05 0)
(0 3.53394e-05 0)
(0 3.54126e-05 0)
(0 3.54856e-05 0)
(0 3.55583e-05 0)
(0 3.56308e-05 0)
(0 3.57029e-05 0)
(0 3.57748e-05 0)
(0 3.58463e-05 0)
(0 3.59175e-05 0)
(0 3.59883e-05 0)
(0 3.60587e-05 0)
(0 3.61287e-05 0)
(0 3.61982e-05 0)
(0 3.62673e-05 0)
(0 3.63358e-05 0)
(0 3.64038e-05 0)
(0 3.64712e-05 0)
(0 3.65379e-05 0)
(0 3.66041e-05 0)
(0 3.66695e-05 0)
(0 3.6734e-05 0)
(0 3.67978e-05 0)
(0 3.68608e-05 0)
(0 3.69228e-05 0)
(0 3.69837e-05 0)
(0 3.70436e-05 0)
(0 3.71023e-05 0)
(0 3.71598e-05 0)
(0 3.7216e-05 0)
(0 3.72707e-05 0)
(0 3.7324e-05 0)
(0 3.73755e-05 0)
(0 3.74254e-05 0)
(0 3.74733e-05 0)
(0 3.75192e-05 0)
(0 3.7563e-05 0)
(0 3.76044e-05 0)
(0 3.76434e-05 0)
(0 3.76797e-05 0)
(0 3.7713e-05 0)
(0 3.77433e-05 0)
(0 3.77704e-05 0)
(0 3.77939e-05 0)
(0 3.78136e-05 0)
(0 3.78293e-05 0)
(0 3.78406e-05 0)
(0 3.78472e-05 0)
(0 3.78489e-05 0)
(0 3.78452e-05 0)
(0 3.78357e-05 0)
(0 3.78201e-05 0)
(0 3.77978e-05 0)
(0 3.77687e-05 0)
(0 3.77319e-05 0)
(0 3.76871e-05 0)
(0 3.76336e-05 0)
(0 3.75709e-05 0)
(0 3.74984e-05 0)
(0 3.74154e-05 0)
(0 3.73212e-05 0)
(0 3.7215e-05 0)
(0 3.7096e-05 0)
(0 3.69634e-05 0)
(0 3.68164e-05 0)
(0 3.6654e-05 0)
(0 3.64752e-05 0)
(0 3.62789e-05 0)
(0 3.60642e-05 0)
(0 3.583e-05 0)
(0 3.55751e-05 0)
(0 3.52981e-05 0)
(0 3.4998e-05 0)
(0 3.46735e-05 0)
(0 3.43232e-05 0)
(0 3.39458e-05 0)
(0 3.35399e-05 0)
(0 3.3104e-05 0)
(0 3.26369e-05 0)
(0 3.21372e-05 0)
(0 3.16034e-05 0)
(0 3.10341e-05 0)
(0 3.04281e-05 0)
(0 2.97841e-05 0)
(0 2.91007e-05 0)
(0 2.8377e-05 0)
(0 2.76119e-05 0)
(0 2.68044e-05 0)
(0 2.59538e-05 0)
(0 2.50595e-05 0)
(0 2.41211e-05 0)
(0 2.31384e-05 0)
(0 2.21114e-05 0)
(0 2.10402e-05 0)
(0 1.99256e-05 0)
(0 1.87682e-05 0)
(0 1.75692e-05 0)
(0 1.633e-05 0)
(0 1.50523e-05 0)
(0 1.37381e-05 0)
(0 1.23898e-05 0)
(0 1.101e-05 0)
(0 9.60168e-06 0)
(0 8.16795e-06 0)
(0 6.71233e-06 0)
(0 5.23849e-06 0)
(0 3.75021e-06 0)
(0 2.2516e-06 0)
(0 7.46715e-07 0)
)
;

boundaryField
{
    bottom
    {
        type            fixedValue;
        value           uniform (0 0 0);
    }
    top
    {
        type            fluxCorrectedVelocity;
        phi             phi.water;
        rho             rho.water;
        value           uniform (0 -6.79569e-09 0);
    }
    walls
    {
        type            fixedValue;
        value           uniform (0 0 0);
    }
}


// ************************************************************************* //
