/*--------------------------------*- C++ -*----------------------------------*\
| =========                 |                                                 |
| \\      /  F ield         | foam-extend: Open Source CFD                    |
|  \\    /   O peration     | Version:     5.0                                |
|   \\  /    A nd           | Web:         http://www.foam-extend.org         |
|    \\/     M anipulation  |                                                 |
\*---------------------------------------------------------------------------*/
FoamFile
{
    version     2.0;
    format      ascii;
    class       volScalarField;
    location    "4";
    object      alpha.gas;
}
// * * * * * * * * * * * * * * * * * * * * * * * * * * * * * * * * * * * * * //

dimensions      [0 0 0 0 0 0 0];

internalField   nonuniform List<scalar> 
100
(
0.125203
0.108023
0.0978274
0.0906103
0.0850825
0.0805347
0.0769362
0.0737894
0.0711673
0.0689315
0.0667651
0.0648109
0.0630674
0.0615503
0.0601231
0.0587703
0.0575915
0.0564332
0.0554045
0.0543976
0.0533022
0.0524453
0.0516531
0.0508128
0.0500637
0.0493875
0.048671
0.047908
0.0471762
0.0464546
0.045763
0.0451424
0.0445484
0.0439799
0.0434093
0.0428625
0.0423721
0.0418878
0.0414001
0.0409508
0.040544
0.0401088
0.039694
0.0392802
0.0388557
0.0384208
0.0379972
0.0376158
0.0372483
0.0368867
0.0365049
0.0360924
0.0357121
0.0353577
0.0350011
0.0346728
0.0343849
0.0340607
0.0337236
0.0333977
0.0330745
0.0327527
0.0324288
0.0321079
0.0317926
0.0314785
0.0311729
0.0309006
0.0306157
0.0303087
0.0300293
0.0297453
0.0294501
0.0291718
0.0289037
0.0286187
0.0283347
0.0280538
0.0277746
0.027513
0.0272359
0.0269673
0.0266965
0.0264391
0.0261702
0.0259039
0.025633
0.0253574
0.0250907
0.0248209
0.024551
0.0242858
0.0240085
0.0237311
0.0234583
0.0231855
0.0229079
0.0226291
0.0223518
0.0220894
)
;

boundaryField
{
    inlet
    {
        type            fixedValue;
        value           uniform 0.2;
    }
    outlet
    {
        type            zeroGradient;
    }
    yzfaces
    {
        type            empty;
    }
}


// ************************************************************************* //
