/*--------------------------------*- C++ -*----------------------------------*\
| =========                 |                                                 |
| \\      /  F ield         | foam-extend: Open Source CFD                    |
|  \\    /   O peration     | Version:     5.0                                |
|   \\  /    A nd           | Web:         http://www.foam-extend.org         |
|    \\/     M anipulation  |                                                 |
\*---------------------------------------------------------------------------*/
FoamFile
{
    version     2.0;
    format      ascii;
    class       volScalarField;
    location    "4";
    object      CO2.gas;
}
// * * * * * * * * * * * * * * * * * * * * * * * * * * * * * * * * * * * * * //

dimensions      [0 0 0 0 0 0 0];

internalField   nonuniform List<scalar> 
100
(
0.125131
0.108069
0.0979297
0.0906455
0.0850446
0.0804142
0.0769095
0.073692
0.0711159
0.0689398
0.0667257
0.0647728
0.0629864
0.0614856
0.0600826
0.0587266
0.0575833
0.0564229
0.0554281
0.054438
0.0532779
0.0524593
0.0516608
0.0508075
0.0500806
0.0494122
0.0486818
0.0478773
0.0471461
0.0464133
0.0457157
0.045118
0.0445401
0.0439648
0.0434123
0.0428758
0.0423982
0.0419076
0.0414075
0.040953
0.0405519
0.0401028
0.0396844
0.0392594
0.0388198
0.0383858
0.0379664
0.0375947
0.0372354
0.0368657
0.0364629
0.0360457
0.0356835
0.0353194
0.0349559
0.034608
0.0343078
0.0339421
0.0335707
0.0332203
0.0328472
0.0324721
0.0320927
0.031701
0.0313195
0.0309062
0.0304833
0.0300788
0.0296386
0.0291489
0.0286754
0.0281563
0.0275986
0.0270284
0.0264395
0.0257933
0.0251112
0.0244041
0.0236616
0.0228992
0.0220752
0.0212382
0.0203615
0.019475
0.0185409
0.0175901
0.0166228
0.0156383
0.0146498
0.013659
0.0126717
0.011698
0.0107325
0.00979449
0.00888497
0.00801146
0.00717511
0.0063828
0.00563943
0.00494712
)
;

boundaryField
{
    inlet
    {
        type            fixedValue;
        value           uniform 0.2;
    }
    outlet
    {
        type            zeroGradient;
    }
    yzfaces
    {
        type            empty;
    }
}


// ************************************************************************* //
