/*--------------------------------*- C++ -*----------------------------------*\
| =========                 |                                                 |
| \\      /  F ield         | foam-extend: Open Source CFD                    |
|  \\    /   O peration     | Version:     5.0                                |
|   \\  /    A nd           | Web:         http://www.foam-extend.org         |
|    \\/     M anipulation  |                                                 |
\*---------------------------------------------------------------------------*/
FoamFile
{
    version     2.0;
    format      ascii;
    class       volScalarField;
    location    "4";
    object      H2O.gas;
}
// * * * * * * * * * * * * * * * * * * * * * * * * * * * * * * * * * * * * * //

dimensions      [0 0 0 0 0 0 0];

internalField   nonuniform List<scalar> 
100
(
1.57858e-17
9.65943e-17
3.90978e-16
1.28355e-15
3.68897e-15
9.65602e-15
2.3766e-14
5.51386e-14
1.22667e-13
2.6259e-13
5.41255e-13
1.0856e-12
2.11987e-12
4.04483e-12
7.54336e-12
1.3782e-11
2.47777e-11
4.37444e-11
7.60751e-11
1.30227e-10
2.19223e-10
3.66596e-10
6.0526e-10
9.87135e-10
1.59484e-09
2.54598e-09
4.01323e-09
6.24751e-09
9.6397e-09
1.47308e-08
2.22982e-08
3.35221e-08
4.99877e-08
7.39236e-08
1.08447e-07
1.58003e-07
2.28573e-07
3.28262e-07
4.67867e-07
6.62109e-07
9.31604e-07
1.29921e-06
1.80104e-06
2.47622e-06
3.37927e-06
4.58094e-06
6.16798e-06
8.25889e-06
1.09929e-05
1.45332e-05
1.90638e-05
2.48638e-05
3.22744e-05
4.16531e-05
5.34418e-05
6.82153e-05
8.67033e-05
0.000109343
0.000137173
0.00017116
0.000212121
0.000261549
0.000320555
0.000390823
0.000474224
0.000572189
0.000686921
0.000821179
0.000975696
0.00115253
0.00135619
0.00158604
0.0018442
0.00213517
0.00245958
0.00281596
0.00320895
0.00363825
0.00410479
0.00460926
0.00514396
0.00571871
0.00632313
0.00696564
0.00762448
0.00830875
0.00901127
0.00972158
0.0104454
0.0111696
0.0118875
0.0125965
0.0132809
0.0139444
0.0145802
0.0151799
0.0157375
0.0162503
0.0167143
0.017144
)
;

boundaryField
{
    inlet
    {
        type            fixedValue;
        value           uniform 0;
    }
    outlet
    {
        type            zeroGradient;
    }
    yzfaces
    {
        type            empty;
    }
}


// ************************************************************************* //
