/*--------------------------------*- C++ -*----------------------------------*\
| =========                 |                                                 |
| \\      /  F ield         | foam-extend: Open Source CFD                    |
|  \\    /   O peration     | Version:     5.0                                |
|   \\  /    A nd           | Web:         http://www.foam-extend.org         |
|    \\/     M anipulation  |                                                 |
\*---------------------------------------------------------------------------*/
FoamFile
{
    version     2.0;
    format      ascii;
    class       volVectorField;
    location    "4";
    object      U.gas;
}
// * * * * * * * * * * * * * * * * * * * * * * * * * * * * * * * * * * * * * //

dimensions      [0 1 -1 0 0 0 0];

internalField   nonuniform List<vector> 
100
(
(0.00795941 0 0)
(0.00916594 0 0)
(0.0100587 0 0)
(0.0107588 0 0)
(0.011332 0 0)
(0.0118755 0 0)
(0.012333 0 0)
(0.0127777 0 0)
(0.0131931 0 0)
(0.013522 0 0)
(0.0138341 0 0)
(0.0141315 0 0)
(0.0144359 0 0)
(0.0147188 0 0)
(0.0149604 0 0)
(0.0151997 0 0)
(0.0154327 0 0)
(0.015685 0 0)
(0.0158983 0 0)
(0.0160898 0 0)
(0.0163214 0 0)
(0.0164908 0 0)
(0.0166209 0 0)
(0.0168074 0 0)
(0.0169864 0 0)
(0.0171183 0 0)
(0.0172728 0 0)
(0.0174408 0 0)
(0.0176007 0 0)
(0.0177605 0 0)
(0.0179281 0 0)
(0.0180808 0 0)
(0.018226 0 0)
(0.0183633 0 0)
(0.0184901 0 0)
(0.0186042 0 0)
(0.0187062 0 0)
(0.0188122 0 0)
(0.0189158 0 0)
(0.019009 0 0)
(0.0190953 0 0)
(0.0191983 0 0)
(0.0192809 0 0)
(0.0193561 0 0)
(0.0194426 0 0)
(0.0195345 0 0)
(0.0196191 0 0)
(0.0197021 0 0)
(0.0197856 0 0)
(0.0198607 0 0)
(0.0199414 0 0)
(0.0200308 0 0)
(0.0201103 0 0)
(0.0201726 0 0)
(0.0202399 0 0)
(0.0202956 0 0)
(0.0203204 0 0)
(0.0203611 0 0)
(0.0204065 0 0)
(0.0204571 0 0)
(0.0205108 0 0)
(0.0205529 0 0)
(0.020603 0 0)
(0.0206468 0 0)
(0.0206874 0 0)
(0.0207331 0 0)
(0.0207655 0 0)
(0.02078 0 0)
(0.0208046 0 0)
(0.0208528 0 0)
(0.0208838 0 0)
(0.0209102 0 0)
(0.0209573 0 0)
(0.0209974 0 0)
(0.0210169 0 0)
(0.0210455 0 0)
(0.0210671 0 0)
(0.0210783 0 0)
(0.0210993 0 0)
(0.021113 0 0)
(0.0211388 0 0)
(0.0211456 0 0)
(0.0211451 0 0)
(0.0211466 0 0)
(0.0211615 0 0)
(0.0211721 0 0)
(0.0211814 0 0)
(0.0211822 0 0)
(0.021175 0 0)
(0.0211673 0 0)
(0.0211552 0 0)
(0.0211365 0 0)
(0.0211164 0 0)
(0.0210884 0 0)
(0.021056 0 0)
(0.0210283 0 0)
(0.0210023 0 0)
(0.0209729 0 0)
(0.0209371 0 0)
(0.0208673 0 0)
)
;

boundaryField
{
    inlet
    {
        type            fixedValue;
        value           uniform (0.005 0 0);
    }
    outlet
    {
        type            zeroGradient;
    }
    yzfaces
    {
        type            empty;
    }
}


// ************************************************************************* //
