/*--------------------------------*- C++ -*----------------------------------*\
| =========                 |                                                 |
| \\      /  F ield         | foam-extend: Open Source CFD                    |
|  \\    /   O peration     | Version:     5.0                                |
|   \\  /    A nd           | Web:         http://www.foam-extend.org         |
|    \\/     M anipulation  |                                                 |
\*---------------------------------------------------------------------------*/
FoamFile
{
    version     2.0;
    format      ascii;
    class       surfaceScalarField;
    location    "1";
    object      phi;
}
// * * * * * * * * * * * * * * * * * * * * * * * * * * * * * * * * * * * * * //

dimensions      [0 3 -1 0 0 0 0];

internalField   nonuniform List<scalar> 
99
(
1.22332e-06
1.22465e-06
1.22505e-06
1.22774e-06
1.22702e-06
1.22714e-06
1.22922e-06
1.229e-06
1.22971e-06
1.23167e-06
1.23137e-06
1.23151e-06
1.23155e-06
1.23045e-06
1.22996e-06
1.23167e-06
1.23147e-06
1.23195e-06
1.23126e-06
1.23081e-06
1.23007e-06
1.23014e-06
1.22915e-06
1.23007e-06
1.23064e-06
1.2307e-06
1.23113e-06
1.23168e-06
1.23127e-06
1.23093e-06
1.23096e-06
1.23172e-06
1.23174e-06
1.23229e-06
1.23242e-06
1.23169e-06
1.23254e-06
1.23214e-06
1.23194e-06
1.23144e-06
1.23218e-06
1.23288e-06
1.23242e-06
1.23208e-06
1.23204e-06
1.23247e-06
1.23197e-06
1.23241e-06
1.23238e-06
1.2328e-06
1.2322e-06
1.23267e-06
1.23236e-06
1.23232e-06
1.23218e-06
1.23206e-06
1.23181e-06
1.2319e-06
1.23168e-06
1.23135e-06
1.23214e-06
1.23191e-06
1.23235e-06
1.23207e-06
1.23223e-06
1.23203e-06
1.23236e-06
1.2321e-06
1.23246e-06
1.23313e-06
1.23255e-06
1.23276e-06
1.23328e-06
1.23358e-06
1.23339e-06
1.23342e-06
1.23372e-06
1.23388e-06
1.23442e-06
1.23448e-06
1.23422e-06
1.23392e-06
1.23356e-06
1.23354e-06
1.23348e-06
1.23384e-06
1.23333e-06
1.23384e-06
1.23342e-06
1.23414e-06
1.23341e-06
1.23336e-06
1.23399e-06
1.23412e-06
1.2339e-06
1.23327e-06
1.23383e-06
1.23376e-06
1.23359e-06
)
;

boundaryField
{
    inlet
    {
        type            calculated;
        value           uniform -1.225e-06;
    }
    outlet
    {
        type            calculated;
        value           uniform 1.23243e-06;
    }
    yzfaces
    {
        type            empty;
    }
}


// ************************************************************************* //
