/*--------------------------------*- C++ -*----------------------------------*\
| =========                 |                                                 |
| \\      /  F ield         | foam-extend: Open Source CFD                    |
|  \\    /   O peration     | Version:     5.0                                |
|   \\  /    A nd           | Web:         http://www.foam-extend.org         |
|    \\/     M anipulation  |                                                 |
\*---------------------------------------------------------------------------*/
FoamFile
{
    version     2.0;
    format      ascii;
    class       volVectorField;
    location    "1";
    object      U.gas;
}
// * * * * * * * * * * * * * * * * * * * * * * * * * * * * * * * * * * * * * //

dimensions      [0 1 -1 0 0 0 0];

internalField   nonuniform List<vector> 
100
(
(0.0109068 0 0)
(0.0130443 0 0)
(0.0145312 0 0)
(0.0157126 0 0)
(0.0166419 0 0)
(0.017415 0 0)
(0.0180932 0 0)
(0.0187074 0 0)
(0.01923 0 0)
(0.0197103 0 0)
(0.020108 0 0)
(0.0204732 0 0)
(0.0207872 0 0)
(0.021053 0 0)
(0.0212737 0 0)
(0.0215009 0 0)
(0.0216745 0 0)
(0.0218085 0 0)
(0.0219044 0 0)
(0.0219709 0 0)
(0.022001 0 0)
(0.0220002 0 0)
(0.0219706 0 0)
(0.0219097 0 0)
(0.021821 0 0)
(0.0216892 0 0)
(0.0215178 0 0)
(0.0213017 0 0)
(0.021036 0 0)
(0.020719 0 0)
(0.0203618 0 0)
(0.019958 0 0)
(0.0195097 0 0)
(0.0190238 0 0)
(0.0185083 0 0)
(0.0179655 0 0)
(0.0174241 0 0)
(0.0168917 0 0)
(0.0163814 0 0)
(0.0159098 0 0)
(0.0154903 0 0)
(0.0151333 0 0)
(0.0148222 0 0)
(0.0145642 0 0)
(0.0143554 0 0)
(0.0141919 0 0)
(0.0140649 0 0)
(0.0139672 0 0)
(0.0138945 0 0)
(0.0138406 0 0)
(0.0137971 0 0)
(0.0137656 0 0)
(0.0137424 0 0)
(0.0137219 0 0)
(0.013708 0 0)
(0.0136967 0 0)
(0.0136894 0 0)
(0.0136837 0 0)
(0.0136802 0 0)
(0.0136772 0 0)
(0.0136765 0 0)
(0.0136777 0 0)
(0.01368 0 0)
(0.0136804 0 0)
(0.01368 0 0)
(0.0136802 0 0)
(0.0136787 0 0)
(0.0136768 0 0)
(0.0136799 0 0)
(0.013686 0 0)
(0.0136829 0 0)
(0.0136853 0 0)
(0.0136858 0 0)
(0.0136924 0 0)
(0.0136926 0 0)
(0.0136917 0 0)
(0.0136954 0 0)
(0.0136958 0 0)
(0.0136987 0 0)
(0.0137017 0 0)
(0.0137018 0 0)
(0.0136969 0 0)
(0.0136941 0 0)
(0.0136937 0 0)
(0.0136918 0 0)
(0.0136907 0 0)
(0.0136897 0 0)
(0.0136917 0 0)
(0.0136918 0 0)
(0.0136924 0 0)
(0.0136943 0 0)
(0.0136923 0 0)
(0.0136938 0 0)
(0.0136986 0 0)
(0.0136971 0 0)
(0.0136936 0 0)
(0.01369 0 0)
(0.0136929 0 0)
(0.0136906 0 0)
(0.0136875 0 0)
)
;

boundaryField
{
    inlet
    {
        type            fixedValue;
        value           uniform (0.005 0 0);
    }
    outlet
    {
        type            zeroGradient;
    }
    yzfaces
    {
        type            empty;
    }
}


// ************************************************************************* //
