/*--------------------------------*- C++ -*----------------------------------*\
| =========                 |                                                 |
| \\      /  F ield         | foam-extend: Open Source CFD                    |
|  \\    /   O peration     | Version:     5.0                                |
|   \\  /    A nd           | Web:         http://www.foam-extend.org         |
|    \\/     M anipulation  |                                                 |
\*---------------------------------------------------------------------------*/
FoamFile
{
    version     2.0;
    format      ascii;
    class       volVectorField;
    location    "1";
    object      U.water;
}
// * * * * * * * * * * * * * * * * * * * * * * * * * * * * * * * * * * * * * //

dimensions      [0 1 -1 0 0 0 0];

internalField   nonuniform List<vector> 
100
(
(0.000114745 0 0)
(0.00029359 0 0)
(0.000445325 0 0)
(0.000584016 0 0)
(0.000713051 0 0)
(0.000833107 0 0)
(0.000948831 0 0)
(0.00106144 0 0)
(0.00117301 0 0)
(0.00128354 0 0)
(0.00139086 0 0)
(0.00149555 0 0)
(0.00160086 0 0)
(0.00170527 0 0)
(0.00180894 0 0)
(0.00191534 0 0)
(0.00202272 0 0)
(0.00212717 0 0)
(0.00223052 0 0)
(0.00233395 0 0)
(0.00243923 0 0)
(0.00254594 0 0)
(0.0026532 0 0)
(0.00276348 0 0)
(0.00287676 0 0)
(0.0029895 0 0)
(0.00310315 0 0)
(0.00321817 0 0)
(0.00333194 0 0)
(0.00344427 0 0)
(0.00355695 0 0)
(0.00367009 0 0)
(0.00378004 0 0)
(0.00388524 0 0)
(0.00398494 0 0)
(0.00407552 0 0)
(0.00415932 0 0)
(0.00423482 0 0)
(0.00429885 0 0)
(0.0043533 0 0)
(0.00440059 0 0)
(0.00444168 0 0)
(0.00447307 0 0)
(0.00449597 0 0)
(0.0045145 0 0)
(0.00453014 0 0)
(0.00454125 0 0)
(0.00454966 0 0)
(0.00455692 0 0)
(0.00456247 0 0)
(0.00456568 0 0)
(0.0045681 0 0)
(0.00457045 0 0)
(0.00457131 0 0)
(0.00457205 0 0)
(0.00457231 0 0)
(0.00457207 0 0)
(0.00457215 0 0)
(0.00457213 0 0)
(0.00457126 0 0)
(0.00457231 0 0)
(0.00457342 0 0)
(0.00457379 0 0)
(0.00457404 0 0)
(0.00457377 0 0)
(0.00457375 0 0)
(0.0045742 0 0)
(0.00457439 0 0)
(0.00457443 0 0)
(0.00457644 0 0)
(0.00457665 0 0)
(0.00457583 0 0)
(0.00457733 0 0)
(0.00457873 0 0)
(0.00457894 0 0)
(0.00457867 0 0)
(0.00457919 0 0)
(0.00458017 0 0)
(0.00458158 0 0)
(0.00458268 0 0)
(0.00458224 0 0)
(0.0045813 0 0)
(0.00458002 0 0)
(0.00457921 0 0)
(0.00457923 0 0)
(0.00457993 0 0)
(0.00457962 0 0)
(0.00457959 0 0)
(0.00457981 0 0)
(0.00458036 0 0)
(0.00458011 0 0)
(0.00457856 0 0)
(0.00457974 0 0)
(0.00458119 0 0)
(0.00458105 0 0)
(0.00457951 0 0)
(0.00457957 0 0)
(0.00458049 0 0)
(0.00458008 0 0)
(0.00457754 0 0)
)
;

boundaryField
{
    inlet
    {
        type            fixedValue;
        value           uniform (0 0 0);
    }
    outlet
    {
        type            zeroGradient;
    }
    yzfaces
    {
        type            empty;
    }
}


// ************************************************************************* //
