/*--------------------------------*- C++ -*----------------------------------*\
| =========                 |                                                 |
| \\      /  F ield         | foam-extend: Open Source CFD                    |
|  \\    /   O peration     | Version:     5.0                                |
|   \\  /    A nd           | Web:         http://www.foam-extend.org         |
|    \\/     M anipulation  |                                                 |
\*---------------------------------------------------------------------------*/
FoamFile
{
    version     2.0;
    format      ascii;
    class       volScalarField;
    location    "1";
    object      alpha.gas;
}
// * * * * * * * * * * * * * * * * * * * * * * * * * * * * * * * * * * * * * //

dimensions      [0 0 0 0 0 0 0];

internalField   nonuniform List<scalar> 
100
(
0.0642286
0.0609929
0.0580771
0.0553884
0.0528715
0.0503649
0.0480576
0.0459895
0.0440288
0.0421778
0.0404853
0.0389696
0.0374301
0.0360104
0.0347054
0.0334161
0.0321998
0.031041
0.0299403
0.0288458
0.0278198
0.0268262
0.0258582
0.0249271
0.0239926
0.0230854
0.022188
0.0213152
0.0204547
0.0196018
0.0187616
0.0179454
0.0171341
0.0163516
0.0155946
0.0148779
0.0141952
0.0135686
0.0129812
0.0124663
0.0120084
0.0116075
0.0112782
0.0110015
0.010775
0.0105906
0.0104498
0.0103405
0.0102482
0.0101898
0.0101365
0.0101009
0.0100706
0.0100529
0.010043
0.010024
0.0100218
0.0100161
0.0100141
0.0100041
0.0100044
0.0100017
0.0100055
0.0100005
0.0100017
0.0100008
0.00999776
0.00999976
0.00999379
0.0100016
0.0100018
0.0099973
0.0100011
0.00999922
0.0100033
0.00999742
0.00999665
0.0100031
0.0100013
0.00999716
0.0100019
0.0100022
0.0100036
0.0100027
0.00999775
0.0100014
0.0100014
0.0100019
0.0100031
0.0100069
0.0100044
0.0100001
0.0100014
0.00999855
0.00999808
0.0100002
0.00999942
0.0100021
0.0100061
0.0100004
)
;

boundaryField
{
    inlet
    {
        type            fixedValue;
        value           uniform 0.2;
    }
    outlet
    {
        type            zeroGradient;
    }
    yzfaces
    {
        type            empty;
    }
}


// ************************************************************************* //
