/*--------------------------------*- C++ -*----------------------------------*\
| =========                 |                                                 |
| \\      /  F ield         | foam-extend: Open Source CFD                    |
|  \\    /   O peration     | Version:     5.0                                |
|   \\  /    A nd           | Web:         http://www.foam-extend.org         |
|    \\/     M anipulation  |                                                 |
\*---------------------------------------------------------------------------*/
FoamFile
{
    version     2.0;
    format      ascii;
    class       volVectorField;
    location    "1";
    object      U.water;
}
// * * * * * * * * * * * * * * * * * * * * * * * * * * * * * * * * * * * * * //

dimensions      [0 1 -1 0 0 0 0];

internalField   nonuniform List<vector> 
100
(
(3.86671e-05 0 0)
(0.000137861 0 0)
(0.00025229 0 0)
(0.000355876 0 0)
(0.000445794 0 0)
(0.000543016 0 0)
(0.000662552 0 0)
(0.00077676 0 0)
(0.000881944 0 0)
(0.000993192 0 0)
(0.0011112 0 0)
(0.00121417 0 0)
(0.00131417 0 0)
(0.00142921 0 0)
(0.00153574 0 0)
(0.00164073 0 0)
(0.0017512 0 0)
(0.00185964 0 0)
(0.00196409 0 0)
(0.00207192 0 0)
(0.00218289 0 0)
(0.0022917 0 0)
(0.00240232 0 0)
(0.00251086 0 0)
(0.00262126 0 0)
(0.00273288 0 0)
(0.00284532 0 0)
(0.00296007 0 0)
(0.00307444 0 0)
(0.00318794 0 0)
(0.00330255 0 0)
(0.00341636 0 0)
(0.0035274 0 0)
(0.00363877 0 0)
(0.00374617 0 0)
(0.00384707 0 0)
(0.00394197 0 0)
(0.00402958 0 0)
(0.00411243 0 0)
(0.00418549 0 0)
(0.00424615 0 0)
(0.00430329 0 0)
(0.00434909 0 0)
(0.00438492 0 0)
(0.00441366 0 0)
(0.00443704 0 0)
(0.00445909 0 0)
(0.00447205 0 0)
(0.00448479 0 0)
(0.00449543 0 0)
(0.00450055 0 0)
(0.00450573 0 0)
(0.0045092 0 0)
(0.00451108 0 0)
(0.00450913 0 0)
(0.00450926 0 0)
(0.00451162 0 0)
(0.00451143 0 0)
(0.00450911 0 0)
(0.0045126 0 0)
(0.00451611 0 0)
(0.00451618 0 0)
(0.00451359 0 0)
(0.00451031 0 0)
(0.00451113 0 0)
(0.00451027 0 0)
(0.00450943 0 0)
(0.00450885 0 0)
(0.00451258 0 0)
(0.00451215 0 0)
(0.00450728 0 0)
(0.00450797 0 0)
(0.00450674 0 0)
(0.00450468 0 0)
(0.0045025 0 0)
(0.0045026 0 0)
(0.00450744 0 0)
(0.00450741 0 0)
(0.00450417 0 0)
(0.00450561 0 0)
(0.00450699 0 0)
(0.00450463 0 0)
(0.00450209 0 0)
(0.00450027 0 0)
(0.00450353 0 0)
(0.00450788 0 0)
(0.00450911 0 0)
(0.00450972 0 0)
(0.00450895 0 0)
(0.00450727 0 0)
(0.00450616 0 0)
(0.00450889 0 0)
(0.0045095 0 0)
(0.00450833 0 0)
(0.00451073 0 0)
(0.00451168 0 0)
(0.00451018 0 0)
(0.00450859 0 0)
(0.00450507 0 0)
(0.00450365 0 0)
)
;

boundaryField
{
    inlet
    {
        type            fixedValue;
        value           uniform (0 0 0);
    }
    outlet
    {
        type            zeroGradient;
    }
    yzfaces
    {
        type            empty;
    }
}


// ************************************************************************* //
