/*--------------------------------*- C++ -*----------------------------------*\
| =========                 |                                                 |
| \\      /  F ield         | foam-extend: Open Source CFD                    |
|  \\    /   O peration     | Version:     5.0                                |
|   \\  /    A nd           | Web:         http://www.foam-extend.org         |
|    \\/     M anipulation  |                                                 |
\*---------------------------------------------------------------------------*/
FoamFile
{
    version     2.0;
    format      ascii;
    class       volScalarField;
    location    "1";
    object      alpha.water;
}
// * * * * * * * * * * * * * * * * * * * * * * * * * * * * * * * * * * * * * //

dimensions      [0 0 0 0 0 0 0];

internalField   nonuniform List<scalar> 
100
(
0.19886
0.198015
0.196874
0.1945
0.18367
0.0870454
0.0109178
0.0100334
0.0100277
0.00995188
0.0100288
0.00992965
0.00997965
0.00995939
0.0100051
0.0100037
0.0099777
0.0100816
0.0100328
0.00997525
0.0099798
0.0099844
0.0100731
0.00998289
0.00994977
0.00997812
0.0100285
0.0100312
0.00997719
0.0100274
0.0100581
0.0100157
0.01005
0.0100819
0.00988368
0.0100076
0.0100262
0.00995857
0.0099841
0.0100044
0.0100291
0.00997571
0.00997895
0.0100304
0.00997988
0.0100058
0.0100324
0.0100003
0.00998111
0.00998378
0.00998151
0.0100023
0.0100736
0.0099846
0.00995443
0.0100238
0.0100323
0.0100056
0.0100299
0.00993083
0.00995514
0.00995632
0.00997825
0.0100045
0.00998587
0.0100042
0.00998211
0.00997674
0.0100299
0.00990786
0.0100026
0.00995504
0.0100065
0.0100281
0.010006
0.00998536
0.00997918
0.0100037
0.00998025
0.0100105
0.0100264
0.010007
0.0100316
0.0099349
0.00997781
0.00998173
0.0100027
0.00988557
0.0100565
0.00995857
0.0100051
0.0100036
0.0100262
0.0100041
0.010054
0.0100049
0.0100261
0.0100086
0.00995736
0.010007
)
;

boundaryField
{
    inlet
    {
        type            fixedValue;
        value           uniform 0.2;
    }
    outlet
    {
        type            zeroGradient;
    }
    yzfaces
    {
        type            empty;
    }
}


// ************************************************************************* //
