/*--------------------------------*- C++ -*----------------------------------*\
| =========                 |                                                 |
| \\      /  F ield         | foam-extend: Open Source CFD                    |
|  \\    /   O peration     | Version:     5.0                                |
|   \\  /    A nd           | Web:         http://www.foam-extend.org         |
|    \\/     M anipulation  |                                                 |
\*---------------------------------------------------------------------------*/
FoamFile
{
    version     2.0;
    format      ascii;
    class       volScalarField;
    location    "1";
    object      CO2.water;
}
// * * * * * * * * * * * * * * * * * * * * * * * * * * * * * * * * * * * * * //

dimensions      [0 0 0 0 0 0 0];

internalField   nonuniform List<scalar> 
100
(
0.000295813
0.00170012
0.00531412
0.011945
0.021075
0.0194147
0.0102017
0.0100007
0.0100003
0.00999989
0.00999984
0.00999986
0.0100005
0.0099999
0.0100001
0.00999966
0.00999987
0.00999964
0.0100001
0.00999998
0.00999957
0.0100004
0.00999998
0.0100002
0.0100004
0.0100003
0.00999969
0.00999957
0.0100004
0.00999982
0.00999981
0.01
0.00999985
0.0100001
0.0100003
0.01
0.0100002
0.0100005
0.0099999
0.0100006
0.00999909
0.0100007
0.00999997
0.0100001
0.00999969
0.00999982
0.00999997
0.00999997
0.0100007
0.00999972
0.0100002
0.00999996
0.00999959
0.01
0.0100002
0.00999995
0.00999971
0.0100003
0.00999972
0.00999988
0.0100004
0.00999988
0.00999919
0.0100003
0.00999963
0.0100004
0.00999955
0.0100006
0.00999953
0.0100002
0.0100002
0.00999959
0.00999989
0.0100002
0.00999962
0.00999987
0.0100001
0.00999997
0.00999991
0.0100002
0.0100005
0.00999941
0.0100001
0.0100001
0.00999999
0.0100002
0.0100003
0.00999967
0.01
0.0100003
0.00999981
0.00999991
0.00999998
0.00999995
0.0100001
0.00999983
0.0100002
0.00999951
0.0100002
0.00999923
)
;

boundaryField
{
    inlet
    {
        type            fixedValue;
        value           uniform 0;
    }
    outlet
    {
        type            zeroGradient;
    }
    yzfaces
    {
        type            empty;
    }
}


// ************************************************************************* //
