/*--------------------------------*- C++ -*----------------------------------*\
| =========                 |                                                 |
| \\      /  F ield         | foam-extend: Open Source CFD                    |
|  \\    /   O peration     | Version:     5.0                                |
|   \\  /    A nd           | Web:         http://www.foam-extend.org         |
|    \\/     M anipulation  |                                                 |
\*---------------------------------------------------------------------------*/
FoamFile
{
    version     2.0;
    format      ascii;
    class       surfaceScalarField;
    location    "1";
    object      phi;
}
// * * * * * * * * * * * * * * * * * * * * * * * * * * * * * * * * * * * * * //

dimensions      [0 3 -1 0 0 0 0];

internalField   nonuniform List<scalar> 
99
(
1.22463e-06
1.2248e-06
1.22437e-06
1.22435e-06
1.22463e-06
1.2189e-06
1.23724e-06
1.25177e-06
1.25142e-06
1.22945e-06
1.25178e-06
1.21452e-06
1.2446e-06
1.24494e-06
1.22909e-06
1.22908e-06
1.19994e-06
1.2355e-06
1.22939e-06
1.19155e-06
1.19181e-06
1.17854e-06
1.20491e-06
1.18568e-06
1.1466e-06
1.16302e-06
1.16978e-06
1.18375e-06
1.15404e-06
1.19866e-06
1.21422e-06
1.20872e-06
1.22818e-06
1.25047e-06
1.19378e-06
1.21513e-06
1.22937e-06
1.19382e-06
1.21479e-06
1.22912e-06
1.23621e-06
1.20674e-06
1.18505e-06
1.20673e-06
1.19995e-06
1.19279e-06
1.2145e-06
1.21485e-06
1.19995e-06
1.19251e-06
1.19215e-06
1.19958e-06
1.24233e-06
1.20741e-06
1.19321e-06
1.19084e-06
1.207e-06
1.1922e-06
1.20639e-06
1.18605e-06
1.17763e-06
1.17145e-06
1.1695e-06
1.19188e-06
1.18566e-06
1.19183e-06
1.18533e-06
1.17789e-06
1.19182e-06
1.13391e-06
1.1698e-06
1.12576e-06
1.14778e-06
1.13939e-06
1.11827e-06
1.10306e-06
1.0736e-06
1.07261e-06
1.059e-06
1.0804e-06
1.06512e-06
1.06545e-06
1.06552e-06
1.02923e-06
1.0289e-06
1.02144e-06
1.02787e-06
9.85831e-07
1.04248e-06
9.9166e-07
9.91311e-07
9.83816e-07
9.8973e-07
9.83228e-07
1.00551e-06
9.83181e-07
9.98069e-07
9.90945e-07
9.54364e-07
)
;

boundaryField
{
    inlet
    {
        type            calculated;
        value           uniform -1.225e-06;
    }
    outlet
    {
        type            calculated;
        value           uniform 9.69652e-07;
    }
    yzfaces
    {
        type            empty;
    }
}


// ************************************************************************* //
