/*--------------------------------*- C++ -*----------------------------------*\
| =========                 |                                                 |
| \\      /  F ield         | foam-extend: Open Source CFD                    |
|  \\    /   O peration     | Version:     5.0                                |
|   \\  /    A nd           | Web:         http://www.foam-extend.org         |
|    \\/     M anipulation  |                                                 |
\*---------------------------------------------------------------------------*/
FoamFile
{
    version     2.0;
    format      ascii;
    class       volScalarField;
    location    "1";
    object      S.water;
}
// * * * * * * * * * * * * * * * * * * * * * * * * * * * * * * * * * * * * * //

dimensions      [0 0 0 0 0 0 0];

internalField   nonuniform List<scalar> 
100
(
0.994302
0.990074
0.984372
0.972502
0.91835
0.435227
0.054589
0.0501672
0.0501384
0.0497594
0.0501439
0.0496483
0.0498983
0.049797
0.0500255
0.0500183
0.0498885
0.050408
0.050164
0.0498762
0.049899
0.049922
0.0503654
0.0499144
0.0497488
0.0498906
0.0501423
0.050156
0.049886
0.0501372
0.0502907
0.0500786
0.05025
0.0504094
0.0494184
0.0500382
0.050131
0.0497929
0.0499205
0.0500219
0.0501457
0.0498785
0.0498947
0.0501521
0.0498994
0.0500292
0.0501621
0.0500013
0.0499056
0.0499189
0.0499075
0.0500116
0.0503678
0.049923
0.0497722
0.050119
0.0501613
0.0500279
0.0501493
0.0496541
0.0497757
0.0497816
0.0498913
0.0500224
0.0499294
0.0500211
0.0499105
0.0498837
0.0501494
0.0495393
0.0500131
0.0497752
0.0500324
0.0501403
0.05003
0.0499268
0.0498959
0.0500184
0.0499013
0.0500526
0.050132
0.0500351
0.0501581
0.0496745
0.0498891
0.0499086
0.0500134
0.0494279
0.0502823
0.0497928
0.0500253
0.0500178
0.0501309
0.0500205
0.05027
0.0500247
0.0501304
0.0500432
0.0497868
0.0500348
)
;

boundaryField
{
    inlet
    {
        type            calculated;
        value           uniform 1;
    }
    outlet
    {
        type            calculated;
        value           uniform 0.0500348;
    }
    yzfaces
    {
        type            empty;
    }
}


// ************************************************************************* //
