/*--------------------------------*- C++ -*----------------------------------*\
| =========                 |                                                 |
| \\      /  F ield         | foam-extend: Open Source CFD                    |
|  \\    /   O peration     | Version:     5.0                                |
|   \\  /    A nd           | Web:         http://www.foam-extend.org         |
|    \\/     M anipulation  |                                                 |
\*---------------------------------------------------------------------------*/
FoamFile
{
    version     2.0;
    format      ascii;
    class       volVectorField;
    location    "1";
    object      U.gas;
}
// * * * * * * * * * * * * * * * * * * * * * * * * * * * * * * * * * * * * * //

dimensions      [0 1 -1 0 0 0 0];

internalField   nonuniform List<vector> 
100
(
(0.000816815 0 0)
(0.00189895 0 0)
(0.00316411 0 0)
(0.00522963 0 0)
(0.0108154 0 0)
(0.00573025 0 0)
(0.00527453 0 0)
(0.00534762 0 0)
(0.00537794 0 0)
(0.00532787 0 0)
(0.00533079 0 0)
(0.00529594 0 0)
(0.00528193 0 0)
(0.00534669 0 0)
(0.00531465 0 0)
(0.00528055 0 0)
(0.00521724 0 0)
(0.00523387 0 0)
(0.00529579 0 0)
(0.00519978 0 0)
(0.0051192 0 0)
(0.0050914 0 0)
(0.00512193 0 0)
(0.00513482 0 0)
(0.00500869 0 0)
(0.00496078 0 0)
(0.0050119 0 0)
(0.00505652 0 0)
(0.00502128 0 0)
(0.00505464 0 0)
(0.00518477 0 0)
(0.00520522 0 0)
(0.00523615 0 0)
(0.00532673 0 0)
(0.00524734 0 0)
(0.00517485 0 0)
(0.00525181 0 0)
(0.00520418 0 0)
(0.00517356 0 0)
(0.00524995 0 0)
(0.00529665 0 0)
(0.00524708 0 0)
(0.00513728 0 0)
(0.00513866 0 0)
(0.0051693 0 0)
(0.00514006 0 0)
(0.00517204 0 0)
(0.00521855 0 0)
(0.00518676 0 0)
(0.00513885 0 0)
(0.00512205 0 0)
(0.00513781 0 0)
(0.00524757 0 0)
(0.00526193 0 0)
(0.0051556 0 0)
(0.00512187 0 0)
(0.00515173 0 0)
(0.00515392 0 0)
(0.00515328 0 0)
(0.0051374 0 0)
(0.00507628 0 0)
(0.00504494 0 0)
(0.00502807 0 0)
(0.00507267 0 0)
(0.00510686 0 0)
(0.00510725 0 0)
(0.00510596 0 0)
(0.00507586 0 0)
(0.00509122 0 0)
(0.00499353 0 0)
(0.00494872 0 0)
(0.00492998 0 0)
(0.00488402 0 0)
(0.00491386 0 0)
(0.00484989 0 0)
(0.00477131 0 0)
(0.00467522 0 0)
(0.00461042 0 0)
(0.00457848 0 0)
(0.00459595 0 0)
(0.00460949 0 0)
(0.00457689 0 0)
(0.00457834 0 0)
(0.00449824 0 0)
(0.00442061 0 0)
(0.00440396 0 0)
(0.00440223 0 0)
(0.00432307 0 0)
(0.00435835 0 0)
(0.00436863 0 0)
(0.00425978 0 0)
(0.00424289 0 0)
(0.00424 0 0)
(0.00423825 0 0)
(0.00427326 0 0)
(0.00427206 0 0)
(0.00425655 0 0)
(0.00427284 0 0)
(0.00417783 0 0)
(0.00413317 0 0)
)
;

boundaryField
{
    inlet
    {
        type            fixedValue;
        value           uniform (0 0 0);
    }
    outlet
    {
        type            zeroGradient;
    }
    yzfaces
    {
        type            empty;
    }
}


// ************************************************************************* //
