/*--------------------------------*- C++ -*----------------------------------*\
| =========                 |                                                 |
| \\      /  F ield         | foam-extend: Open Source CFD                    |
|  \\    /   O peration     | Version:     5.0                                |
|   \\  /    A nd           | Web:         http://www.foam-extend.org         |
|    \\/     M anipulation  |                                                 |
\*---------------------------------------------------------------------------*/
FoamFile
{
    version     2.0;
    format      ascii;
    class       volScalarField;
    location    "8";
    object      alpha.gas;
}
// * * * * * * * * * * * * * * * * * * * * * * * * * * * * * * * * * * * * * //

dimensions      [0 0 0 0 0 0 0];

internalField   nonuniform List<scalar> 
100
(
0.090237
0.0888274
0.0875246
0.0862958
0.0851049
0.0840161
0.0825875
0.0814896
0.0802274
0.0790983
0.0780767
0.0770141
0.0761127
0.0751202
0.0741935
0.073192
0.0723081
0.071431
0.0705007
0.0696025
0.068875
0.0680572
0.0672631
0.0664901
0.0657151
0.0649737
0.0642811
0.0635431
0.0628826
0.0621798
0.0614986
0.0608472
0.0602774
0.0596966
0.059078
0.0584448
0.0578733
0.0574053
0.0567805
0.0562963
0.0557997
0.0553244
0.0548434
0.0544393
0.0539567
0.0535321
0.0529735
0.0525467
0.0521305
0.0516908
0.051265
0.0508578
0.0504482
0.0500288
0.0497159
0.0493365
0.0489475
0.048602
0.0482475
0.0479229
0.047516
0.047226
0.0469258
0.0466215
0.0463139
0.0459856
0.0456898
0.0453757
0.0450839
0.0447458
0.0444798
0.0441847
0.0439203
0.0436179
0.0433189
0.0430503
0.0427899
0.0424935
0.042271
0.0420154
0.0417708
0.0415515
0.0412891
0.0410463
0.0408111
0.0405275
0.0403298
0.040084
0.0398474
0.0396121
0.0393925
0.0391765
0.038973
0.0387484
0.0385471
0.038312
0.0380951
0.0379676
0.0378099
0.0377395
)
;

boundaryField
{
    inlet
    {
        type            fixedValue;
        value           uniform 0.2;
    }
    outlet
    {
        type            zeroGradient;
    }
    yzfaces
    {
        type            empty;
    }
}


// ************************************************************************* //
