/*--------------------------------*- C++ -*----------------------------------*\
| =========                 |                                                 |
| \\      /  F ield         | foam-extend: Open Source CFD                    |
|  \\    /   O peration     | Version:     5.0                                |
|   \\  /    A nd           | Web:         http://www.foam-extend.org         |
|    \\/     M anipulation  |                                                 |
\*---------------------------------------------------------------------------*/
FoamFile
{
    version     2.0;
    format      ascii;
    class       volScalarField;
    location    "8";
    object      CO2.gas;
}
// * * * * * * * * * * * * * * * * * * * * * * * * * * * * * * * * * * * * * //

dimensions      [0 0 0 0 0 0 0];

internalField   nonuniform List<scalar> 
100
(
0.0902352
0.0887846
0.0874983
0.0862871
0.085083
0.0840619
0.082529
0.0815192
0.0802165
0.0790878
0.0780877
0.0769712
0.076124
0.0751143
0.074209
0.0731682
0.0723043
0.0714345
0.0704863
0.0695907
0.0688988
0.0680654
0.0672673
0.0664864
0.0657097
0.0649741
0.0642968
0.0635265
0.0628845
0.062172
0.0614914
0.0608316
0.0602728
0.059706
0.0590885
0.0584436
0.0578615
0.0574245
0.0567633
0.0563009
0.0557913
0.0553235
0.0548432
0.0544444
0.0539571
0.0535574
0.0529663
0.0525546
0.0521396
0.0516907
0.0512608
0.0508551
0.0504493
0.0500152
0.0497278
0.0493458
0.0489382
0.0486071
0.0482511
0.047932
0.0475031
0.0472216
0.0469212
0.0466241
0.0463206
0.0459869
0.0456908
0.0453761
0.0450889
0.0447388
0.0444783
0.044182
0.0439196
0.0436141
0.0433187
0.0430523
0.0427938
0.042487
0.0422745
0.0420174
0.0417717
0.0415569
0.0412873
0.0410454
0.0408134
0.0405193
0.0403308
0.0400801
0.0398446
0.03961
0.0393911
0.0391737
0.0389742
0.0387509
0.0385504
0.03831
0.0380902
0.0379731
0.037809
0.0377446
)
;

boundaryField
{
    inlet
    {
        type            fixedValue;
        value           uniform 0.2;
    }
    outlet
    {
        type            zeroGradient;
    }
    yzfaces
    {
        type            empty;
    }
}


// ************************************************************************* //
