/*--------------------------------*- C++ -*----------------------------------*\
| =========                 |                                                 |
| \\      /  F ield         | foam-extend: Open Source CFD                    |
|  \\    /   O peration     | Version:     5.0                                |
|   \\  /    A nd           | Web:         http://www.foam-extend.org         |
|    \\/     M anipulation  |                                                 |
\*---------------------------------------------------------------------------*/
FoamFile
{
    version     2.0;
    format      ascii;
    class       surfaceScalarField;
    location    "8";
    object      phi;
}
// * * * * * * * * * * * * * * * * * * * * * * * * * * * * * * * * * * * * * //

dimensions      [0 3 -1 0 0 0 0];

internalField   nonuniform List<scalar> 
99
(
1.22599e-06
1.22705e-06
1.23192e-06
1.22832e-06
1.23376e-06
1.22716e-06
1.2364e-06
1.23186e-06
1.23508e-06
1.23328e-06
1.23619e-06
1.24259e-06
1.23905e-06
1.24672e-06
1.24306e-06
1.24709e-06
1.24447e-06
1.24021e-06
1.24044e-06
1.24634e-06
1.2383e-06
1.24121e-06
1.23896e-06
1.23841e-06
1.24211e-06
1.24107e-06
1.23864e-06
1.24211e-06
1.24065e-06
1.2408e-06
1.24259e-06
1.24586e-06
1.24482e-06
1.24563e-06
1.24553e-06
1.24263e-06
1.24719e-06
1.24205e-06
1.24728e-06
1.24388e-06
1.24817e-06
1.24645e-06
1.24794e-06
1.24535e-06
1.24658e-06
1.23886e-06
1.24462e-06
1.24155e-06
1.2397e-06
1.24227e-06
1.24348e-06
1.24546e-06
1.2435e-06
1.24927e-06
1.24504e-06
1.24308e-06
1.2468e-06
1.24345e-06
1.24492e-06
1.2413e-06
1.24598e-06
1.24581e-06
1.24847e-06
1.24746e-06
1.24582e-06
1.24695e-06
1.24647e-06
1.24721e-06
1.2452e-06
1.24775e-06
1.24802e-06
1.2489e-06
1.2482e-06
1.25113e-06
1.24879e-06
1.24972e-06
1.24784e-06
1.25063e-06
1.25026e-06
1.24935e-06
1.25008e-06
1.24893e-06
1.24975e-06
1.2494e-06
1.24795e-06
1.25083e-06
1.24901e-06
1.25063e-06
1.25071e-06
1.25147e-06
1.25097e-06
1.25251e-06
1.25246e-06
1.25093e-06
1.25055e-06
1.24964e-06
1.2528e-06
1.24951e-06
1.25136e-06
)
;

boundaryField
{
    inlet
    {
        type            calculated;
        value           uniform -1.225e-06;
    }
    outlet
    {
        type            calculated;
        value           uniform 1.24926e-06;
    }
    yzfaces
    {
        type            empty;
    }
}


// ************************************************************************* //
