/*--------------------------------*- C++ -*----------------------------------*\
| =========                 |                                                 |
| \\      /  F ield         | foam-extend: Open Source CFD                    |
|  \\    /   O peration     | Version:     5.0                                |
|   \\  /    A nd           | Web:         http://www.foam-extend.org         |
|    \\/     M anipulation  |                                                 |
\*---------------------------------------------------------------------------*/
FoamFile
{
    version     2.0;
    format      ascii;
    class       volVectorField;
    location    "8";
    object      U.gas;
}
// * * * * * * * * * * * * * * * * * * * * * * * * * * * * * * * * * * * * * //

dimensions      [0 1 -1 0 0 0 0];

internalField   nonuniform List<vector> 
100
(
(0.0110869 0 0)
(0.0112542 0 0)
(0.0114147 0 0)
(0.0115562 0 0)
(0.0116955 0 0)
(0.0118519 0 0)
(0.0120511 0 0)
(0.0121975 0 0)
(0.0123663 0 0)
(0.012499 0 0)
(0.0126391 0 0)
(0.0128238 0 0)
(0.0129599 0 0)
(0.0131332 0 0)
(0.0132952 0 0)
(0.0134477 0 0)
(0.0135763 0 0)
(0.0136853 0 0)
(0.0138174 0 0)
(0.0139716 0 0)
(0.0140687 0 0)
(0.0141892 0 0)
(0.014323 0 0)
(0.0144388 0 0)
(0.0145892 0 0)
(0.0147252 0 0)
(0.0148291 0 0)
(0.0149673 0 0)
(0.0150952 0 0)
(0.0152247 0 0)
(0.015358 0 0)
(0.0154965 0 0)
(0.015608 0 0)
(0.0157302 0 0)
(0.0158689 0 0)
(0.0159699 0 0)
(0.0160663 0 0)
(0.016165 0 0)
(0.0163034 0 0)
(0.0163874 0 0)
(0.016497 0 0)
(0.0166114 0 0)
(0.0167014 0 0)
(0.0167781 0 0)
(0.0168796 0 0)
(0.0169393 0 0)
(0.0170552 0 0)
(0.0171343 0 0)
(0.0171955 0 0)
(0.0173003 0 0)
(0.0174129 0 0)
(0.0175246 0 0)
(0.0176199 0 0)
(0.0177234 0 0)
(0.0177927 0 0)
(0.0178547 0 0)
(0.0179488 0 0)
(0.0180203 0 0)
(0.0180855 0 0)
(0.0181524 0 0)
(0.0182536 0 0)
(0.0183236 0 0)
(0.0184151 0 0)
(0.0185009 0 0)
(0.0185583 0 0)
(0.01863 0 0)
(0.0186983 0 0)
(0.0187742 0 0)
(0.0188371 0 0)
(0.0189194 0 0)
(0.0189863 0 0)
(0.0190678 0 0)
(0.0191304 0 0)
(0.019229 0 0)
(0.0192955 0 0)
(0.0193359 0 0)
(0.019395 0 0)
(0.019466 0 0)
(0.0195206 0 0)
(0.0195803 0 0)
(0.0196268 0 0)
(0.0196759 0 0)
(0.0197434 0 0)
(0.0197947 0 0)
(0.0198428 0 0)
(0.0199169 0 0)
(0.0199521 0 0)
(0.0200217 0 0)
(0.0200849 0 0)
(0.0201415 0 0)
(0.0201865 0 0)
(0.0202398 0 0)
(0.0202983 0 0)
(0.0203393 0 0)
(0.0203685 0 0)
(0.0204173 0 0)
(0.0204547 0 0)
(0.0204559 0 0)
(0.0204706 0 0)
(0.0204353 0 0)
)
;

boundaryField
{
    inlet
    {
        type            fixedValue;
        value           uniform (0.005 0 0);
    }
    outlet
    {
        type            zeroGradient;
    }
    yzfaces
    {
        type            empty;
    }
}


// ************************************************************************* //
