/*--------------------------------*- C++ -*----------------------------------*\
| =========                 |                                                 |
| \\      /  F ield         | foam-extend: Open Source CFD                    |
|  \\    /   O peration     | Version:     5.0                                |
|   \\  /    A nd           | Web:         http://www.foam-extend.org         |
|    \\/     M anipulation  |                                                 |
\*---------------------------------------------------------------------------*/
FoamFile
{
    version     2.0;
    format      ascii;
    class       volVectorField;
    location    "8";
    object      U.water;
}
// * * * * * * * * * * * * * * * * * * * * * * * * * * * * * * * * * * * * * //

dimensions      [0 1 -1 0 0 0 0];

internalField   nonuniform List<vector> 
100
(
(-4.0311e-07 0 0)
(1.4064e-05 0 0)
(4.08074e-05 0 0)
(6.09692e-05 0 0)
(8.34319e-05 0 0)
(7.50357e-05 0 0)
(8.73635e-05 0 0)
(0.000113774 0 0)
(0.000123602 0 0)
(0.000155869 0 0)
(0.000173314 0 0)
(0.000196227 0 0)
(0.000213912 0 0)
(0.000224466 0 0)
(0.000237035 0 0)
(0.000253337 0 0)
(0.000276334 0 0)
(0.0002847 0 0)
(0.000296311 0 0)
(0.000326343 0 0)
(0.000344397 0 0)
(0.000351403 0 0)
(0.00036846 0 0)
(0.000383002 0 0)
(0.000400096 0 0)
(0.000420619 0 0)
(0.000433928 0 0)
(0.000450575 0 0)
(0.000467823 0 0)
(0.000480083 0 0)
(0.000499147 0 0)
(0.000523003 0 0)
(0.000542461 0 0)
(0.000552167 0 0)
(0.000562685 0 0)
(0.000580815 0 0)
(0.000608216 0 0)
(0.000617525 0 0)
(0.000630743 0 0)
(0.000655861 0 0)
(0.000670141 0 0)
(0.000685644 0 0)
(0.0007038 0 0)
(0.000716435 0 0)
(0.000728175 0 0)
(0.000735095 0 0)
(0.000749469 0 0)
(0.000775924 0 0)
(0.000786838 0 0)
(0.000800923 0 0)
(0.00081972 0 0)
(0.000835633 0 0)
(0.00084924 0 0)
(0.000872005 0 0)
(0.000888367 0 0)
(0.000893859 0 0)
(0.0009118 0 0)
(0.000928714 0 0)
(0.000942856 0 0)
(0.000952596 0 0)
(0.000969801 0 0)
(0.000993029 0 0)
(0.00100557 0 0)
(0.00101842 0 0)
(0.00102909 0 0)
(0.0010437 0 0)
(0.00105892 0 0)
(0.00107314 0 0)
(0.00108484 0 0)
(0.00110122 0 0)
(0.00111997 0 0)
(0.00113371 0 0)
(0.00114691 0 0)
(0.00116001 0 0)
(0.00117767 0 0)
(0.0011939 0 0)
(0.00120542 0 0)
(0.00122284 0 0)
(0.0012402 0 0)
(0.00125057 0 0)
(0.00126618 0 0)
(0.00127766 0 0)
(0.00128965 0 0)
(0.00130577 0 0)
(0.00131617 0 0)
(0.00133395 0 0)
(0.00135077 0 0)
(0.0013614 0 0)
(0.00137758 0 0)
(0.0013932 0 0)
(0.00140843 0 0)
(0.0014233 0 0)
(0.00143673 0 0)
(0.00144915 0 0)
(0.00146091 0 0)
(0.00147356 0 0)
(0.00149581 0 0)
(0.00151013 0 0)
(0.0015215 0 0)
(0.0015373 0 0)
)
;

boundaryField
{
    inlet
    {
        type            fixedValue;
        value           uniform (0 0 0);
    }
    outlet
    {
        type            zeroGradient;
    }
    yzfaces
    {
        type            empty;
    }
}


// ************************************************************************* //
